  576
# Step 3, RM=C2H5O4S[30] (12 atoms), C2H5O4S[38] d=499.824pm (12 atoms), C2H5O4S[48] d=630.746pm (12 atoms), C2H5O4S[3] d=705.047pm (12 atoms), C2H5O4S[5] d=791.902pm (12 atoms), C2H5O4S[25] d=820.260pm (12 atoms), C2H5O4S[16] d=834.688pm (12 atoms), C2H5O4S[15] d=839.944pm (12 atoms), C2H5O4S[4] d=842.422pm (12 atoms), C2H5O4S[33] d=848.579pm (12 atoms), C2H5O4S[18] d=853.852pm (12 atoms), C2H5O4S[13] d=869.089pm (12 atoms), C2H5O4S[14] d=905.813pm (12 atoms), C2H5O4S[47] d=934.494pm (12 atoms), C2H5O4S[24] d=944.442pm (12 atoms), C2H5O4S[17] d=982.605pm (12 atoms), C2H5O4S[46] d=1024.359pm (12 atoms), C2H5O4S[11] d=1085.475pm (12 atoms), C2H5O4S[32] d=1096.027pm (12 atoms), C2H5O4S[2] d=1116.292pm (12 atoms), C2H5O4S[28] d=1149.193pm (12 atoms), C2H5O4S[41] d=1160.343pm (12 atoms), C2H5O4S[42] d=1185.377pm (12 atoms), C2H5O4S[29] d=1214.552pm (12 atoms), C2H5O4S[27] d=1220.025pm (12 atoms), C2H5O4S[34] d=1231.274pm (12 atoms), C2H5O4S[12] d=1236.973pm (12 atoms), C2H5O4S[20] d=1242.504pm (12 atoms), C2H5O4S[43] d=1253.950pm (12 atoms), C2H5O4S[31] d=1254.629pm (12 atoms), C2H5O4S[26] d=1351.225pm (12 atoms), C2H5O4S[7] d=1367.679pm (12 atoms), C2H5O4S[44] d=1381.975pm (12 atoms), C2H5O4S[40] d=1382.461pm (12 atoms), C2H5O4S[1] d=1390.342pm (12 atoms), C2H5O4S[36] d=1399.389pm (12 atoms), C2H5O4S[21] d=1474.322pm (12 atoms), C2H5O4S[10] d=1496.140pm (12 atoms), C2H5O4S[45] d=1514.389pm (12 atoms), C2H5O4S[19] d=1541.133pm (12 atoms), C2H5O4S[37] d=1547.991pm (12 atoms), C2H5O4S[23] d=1554.589pm (12 atoms), C2H5O4S[22] d=1573.634pm (12 atoms), C2H5O4S[6] d=1591.831pm (12 atoms), C2H5O4S[39] d=1651.644pm (12 atoms), C2H5O4S[8] d=1652.099pm (12 atoms), C2H5O4S[9] d=1794.610pm (12 atoms), C2H5O4S[35] d=1898.165pm (12 atoms)
  C   1.16752  -0.29331   1.36787
  C   2.59332   0.29669   1.55787
  H   0.43552  -0.05631   2.13787
  H   1.18062  -1.38031   1.43787
  H   3.37812  -0.45631   1.62787
  H   2.94692   0.83569   0.67787
  H   2.74122   1.03069   2.34787
  O   0.80112   0.08969  -0.02213
  O  -0.66198   0.50669  -1.86213
  O  -0.92138  -1.43131  -0.39213
  O  -1.34148   0.85069   0.48787
  S  -0.68478  -0.00831  -0.46213
  C   5.74562   0.83077  -0.72213
  C   6.47062   1.77654   0.32787
  H   5.18962   0.02393  -0.24213
  H   6.46862   0.40687  -1.42213
  H   7.00262   2.65350  -0.04213
  H   7.28362   1.20536   0.77787
  H   5.81062   2.08947   1.13787
  O   4.80462   1.70314  -1.43213
  O   5.37262   0.71034  -3.60213
  O   3.53862  -0.24227  -2.37213
  O   3.39362   1.98789  -3.43213
  S   4.22062   0.98961  -2.81213
  C   1.19582  -4.30231   6.16787
  C   0.58562  -5.70821   6.13787
  H   2.23232  -4.31281   5.82787
  H   1.20362  -3.96561   7.19787
  H   0.17482  -5.97891   5.15787
  H  -0.22298  -5.68381   6.86787
  H   1.26382  -6.43291   6.58787
  O   0.28412  -3.59051   5.35787
  O   1.75772  -2.46401   3.69787
  O  -0.54508  -1.65511   4.18787
  O   1.22002  -1.37061   5.83787
  S   0.74472  -2.15421   4.69787
  C   2.05782  -0.22921  -5.74213
  C   1.03992  -0.51121  -4.61213
  H   3.11332  -0.15461  -5.48213
  H   1.86082   0.72589  -6.23213
  H   1.19812  -1.39101  -3.98213
  H   0.03112  -0.46941  -5.02213
  H   1.16262   0.34609  -3.95213
  O   1.95702  -1.33641  -6.55213
  O   2.67042  -2.57341  -8.30213
  O   0.90042  -0.87401  -8.64213
  O   3.23482  -0.26461  -8.17213
  S   2.20252  -1.23301  -8.06213
  C   1.51272   3.72379  -5.59213
  C   0.57052   2.90329  -4.72213
  H   1.75082   4.69519  -5.16213
  H   2.44162   3.18979  -5.79213
  H   0.31282   1.90769  -5.08213
  H  -0.26398   3.59789  -4.62213
  H   0.94712   2.77819  -3.70213
  O   0.60882   3.98209  -6.67213
  O   0.40802   4.34149  -9.00213
  O   2.68162   4.50269  -7.96213
  O   1.02232   6.24039  -7.62213
  S   1.22712   4.81539  -7.91213
  C   5.09012   2.59369   7.88787
  C   4.49682   3.16069   9.21787
  H   5.06232   1.50669   7.95787
  H   6.09442   3.01569   7.84787
  H   5.03232   4.04969   9.55787
  H   4.50122   2.36569   9.96787
  H   3.45962   3.42869   9.01787
  O   4.26642   3.19769   6.73787
  O   5.50752   2.19969   5.01787
  O   3.40442   3.35069   4.53787
  O   5.37892   4.58369   5.16787
  S   4.67322   3.33769   5.22787
  C  -3.61938  -2.06611  -5.05213
  C  -4.23538  -2.97701  -3.95213
  H  -3.33138  -2.70291  -5.88213
  H  -2.69138  -1.63401  -4.67213
  H  -4.91738  -3.74721  -4.31213
  H  -3.55338  -3.43801  -3.24213
  H  -4.67838  -2.22171  -3.31213
  O  -4.53438  -1.14701  -5.38213
  O  -5.68638  -2.24081  -7.22213
  O  -3.98638  -0.65461  -7.72213
  O  -6.00338   0.17409  -6.84213
  S  -5.11338  -0.95561  -6.86213
  C   2.86432  -7.39531   3.20787
  C   1.84482  -7.98791   4.20787
  H   3.83682  -7.84221   3.41787
  H   3.08212  -6.34731   3.41787
  H   0.92682  -7.40401   4.13787
  H   1.57052  -8.95131   3.77787
  H   2.18312  -8.09691   5.23787
  O   2.34432  -7.56901   1.79787
  O   2.35892  -8.77921  -0.26213
  O   4.34292  -7.59981   0.33787
  O   3.76522  -9.58981   1.49787
  S   3.26892  -8.45051   0.77787
  C   7.72313  -0.88021   5.61787
  C   8.43874  -0.04141   6.65787
  H   6.96641  -0.41921   4.98787
  H   7.18039  -1.71631   6.05787
  H   7.78319   0.69049   7.12787
  H   8.83853  -0.71551   7.41787
  H   9.29108   0.52839   6.28787
  O   8.75044  -1.37931   4.78787
  O   7.60206  -0.75451   2.69787
  O   9.24709  -2.63231   2.77787
  O   7.07153  -2.83631   3.92787
  S   8.07573  -1.96231   3.38787
  C  -4.55098   6.32639  -1.75213
  C  -4.07748   6.11609  -0.34213
  H  -4.67568   7.39819  -1.91213
  H  -5.50428   5.79879  -1.72213
  H  -3.09528   6.57389  -0.22213
  H  -3.97508   5.06289  -0.08213
  H  -4.76108   6.67219   0.29787
  O  -3.53148   5.64399  -2.54213
  O  -5.23608   5.64709  -4.36213
  O  -3.41978   7.30089  -4.40213
  O  -2.97148   4.99069  -4.82213
  S  -3.83838   5.93179  -4.10213
  C  -6.07738   0.35059   5.19787
  C  -6.16338   0.09769   6.68787
  H  -6.32738   1.37149   4.90787
  H  -5.09138   0.03909   4.85787
  H  -5.62738  -0.77541   7.05787
  H  -7.20038   0.03979   7.01787
  H  -5.72938   0.94539   7.21787
  O  -7.01338  -0.41951   4.58787
  O  -5.75438  -2.47461   4.52787
  O  -8.05438  -2.29131   3.51787
  O  -6.14038  -1.23671   2.48787
  S  -6.72538  -1.74221   3.73787
  C  -5.40208   4.14859   5.03787
  C  -6.02498   4.53919   6.28787
  H  -4.53638   3.50749   5.19787
  H  -6.02058   3.52229   4.38787
  H  -6.99428   5.03139   6.36787
  H  -6.35028   3.64339   6.81787
  H  -5.29528   5.07309   6.89787
  O  -5.07858   5.31219   4.28787
  O  -3.33488   4.64969   2.70787
  O  -3.82008   6.94029   2.87787
  O  -2.67238   5.76239   4.68787
  S  -3.58098   5.69499   3.60787
  C  -2.56298  -8.79011   2.30787
  C  -1.33088  -8.68941   3.12787
  H  -2.56048  -9.69551   1.69787
  H  -3.41748  -8.62941   2.96787
  H  -0.57668  -8.52491   2.35787
  H  -1.18118  -9.57191   3.75787
  H  -1.41488  -7.80111   3.75787
  O  -2.42288  -7.70721   1.40787
  O  -3.06028  -6.37651  -0.44213
  O  -2.49378  -8.69511  -0.77213
  O  -4.53318  -8.03861   0.45787
  S  -3.17088  -7.73631   0.02787
  C  -0.82278   8.90269   0.43787
  C   0.25562   7.83919   0.65787
  H  -1.71908   8.33609   0.69787
  H  -0.50738   9.73239   1.07787
  H  -0.09638   6.92659   0.17787
  H   1.21912   8.12689   0.23787
  H   0.55612   7.60899   1.67787
  O  -0.88048   9.22029  -1.02213
  O  -0.65368  10.51159  -3.02213
  O   0.73302  10.99889  -1.07213
  O  -1.63818  11.53149  -1.05213
  S  -0.56708  10.65889  -1.58213
  C   9.85582  -0.60411  -0.57213
  C  10.53612   0.07349   0.57787
  H   8.94962  -0.05591  -0.83213
  H   9.44972  -1.58521  -0.32213
  H   9.94572   0.89939   0.96787
  H  10.72392  -0.56771   1.43787
  H  11.53562   0.43419   0.32787
  O  10.76552  -0.72441  -1.67213
  O  11.35302  -1.23351  -4.04213
  O   9.16592  -0.45041  -3.38213
  O   9.95552  -2.71541  -2.73213
  S  10.24772  -1.34051  -3.10213
  C   4.20862  -7.27376  -4.04213
  C   4.00362  -8.30680  -3.00213
  H   3.26862  -6.74598  -4.20213
  H   4.98862  -6.53840  -3.84213
  H   3.02662  -8.71465  -3.26213
  H   4.73462  -9.09682  -2.82213
  H   3.82162  -7.89229  -2.00213
  O   4.62162  -7.92803  -5.23213
  O   4.67362  -8.26193  -7.58213
  O   2.55862  -7.52803  -6.39213
  O   4.38862  -5.97990  -6.63213
  S   3.97462  -7.36401  -6.64213
  C   6.18738   2.91239  -7.40213
  C   5.12705   2.77939  -6.28213
  H   7.08746   3.43419  -7.08213
  H   5.76374   3.32539  -8.32213
  H   4.28911   2.13719  -6.55213
  H   4.70799   3.78539  -6.26213
  H   5.57357   2.51529  -5.32213
  O   6.52725   1.60269  -7.72213
  O   8.19625   0.09299  -8.89213
  O   6.57999   1.38359  -10.19213
  O   8.36759   2.49309  -9.04213
  S   7.47592   1.32789  -9.06213
  C  -6.47438  -6.49861  -2.05213
  C  -7.33738  -6.72381  -0.76213
  H  -5.41138  -6.72361  -1.97213
  H  -6.51438  -5.42191  -2.22213
  H  -8.41438  -6.58151  -0.86213
  H  -7.06638  -7.75721  -0.54213
  H  -7.04538  -6.09271   0.07787
  O  -7.12538  -7.34891  -3.06213
  O  -7.47538  -7.98251  -5.39213
  O  -5.41638  -6.93041  -4.69213
  O  -7.50738  -5.68451  -4.58213
  S  -6.86138  -7.00351  -4.52213
  C  -8.31788   4.93109   1.40787
  C  -7.50578   6.18949   1.12787
  H  -7.84078   4.17589   2.03787
  H  -9.19888   5.21259   1.98787
  H  -6.60218   5.81829   0.64787
  H  -7.94868   6.76579   0.31787
  H  -7.34088   6.66969   2.08787
  O  -8.67678   4.40129   0.15787
  O  -9.45208   4.26549  -2.04213
  O  -10.85638   3.68349  -0.08213
  O  -10.21548   6.06019  -0.45213
  S  -9.93088   4.63829  -0.72213
  C   8.80632   8.32469   4.34787
  C   8.61242   7.12069   5.18787
  H   8.29502   9.25369   4.59787
  H   9.86402   8.58469   4.38787
  H   9.58842   6.70569   5.44787
  H   8.12162   7.28069   6.14787
  H   8.03892   6.40369   4.60787
  O   8.43672   7.84069   2.99787
  O   6.87052   7.55469   1.07787
  O   6.09402   8.45469   3.24787
  O   7.60342   9.81669   1.88787
  S   7.17202   8.46369   2.23787
  C  -1.25728   4.15099  11.85787
  C  -2.71868   4.46319  11.86787
  H  -1.04998   3.53429  12.73787
  H  -0.75498   5.09469  12.07787
  H  -2.80958   5.38609  11.29787
  H  -3.06628   4.63759  12.88787
  H  -3.33918   3.65729  11.47787
  O  -0.80908   3.56539  10.76787
  O   0.30632   3.61109   8.64787
  O  -0.09608   5.65699   9.74787
  O   1.49942   4.03499  10.71787
  S   0.30032   4.30299   9.93787
  C   8.00552   9.08859  -1.69213
  C   6.52042   9.38519  -1.66213
  H   8.54612   9.96809  -2.04213
  H   8.23392   8.85299  -0.66213
  H   6.06472   9.61429  -2.62213
  H   6.43142  10.33449  -1.13213
  H   6.07362   8.53449  -1.14213
  O   8.23432   8.00069  -2.61213
  O   9.71582   6.58759  -3.87213
  O  10.20032   7.02809  -1.48213
  O  10.42102   8.74129  -3.11213
  S   9.76012   7.57059  -2.75213
  C  -0.73034  -10.61751  -3.26213
  C   0.03175  -10.56151  -1.95213
  H  -1.11386  -9.60911  -3.42213
  H  -1.62430  -11.24121  -3.26213
  H   0.72776  -9.72321  -1.92213
  H   0.54584  -11.51021  -1.79213
  H  -0.55789  -10.51531  -1.03213
  O   0.06002  -11.07451  -4.47213
  O  -0.55859  -12.67501  -6.23213
  O   0.25957  -10.56021  -6.89213
  O  -1.94917  -10.77771  -5.76213
  S  -0.61491  -11.26841  -5.94213
  C  -5.10798  -7.52931   7.95787
  C  -4.94428  -8.53031   9.03787
  H  -4.12978  -7.58031   7.47787
  H  -5.35558  -6.49031   8.17787
  H  -5.88588  -8.91531   9.42787
  H  -4.32398  -8.19731   9.86787
  H  -4.35828  -9.35731   8.62787
  O  -6.04808  -8.10531   6.96787
  O  -6.76398  -8.87031   4.90787
  O  -4.51848  -8.32531   5.19787
  O  -6.18808  -6.56631   5.17787
  S  -5.86098  -7.94031   5.49787
  C   1.32462  10.95459   6.96787
  C   1.87762   9.99919   7.99787
  H   0.59162  11.44639   7.60787
  H   2.10662  11.62969   6.62787
  H   2.76062   9.48679   7.61787
  H   2.14462  10.43649   8.96787
  H   1.08362   9.27459   8.18787
  O   0.60862  10.14539   5.82787
  O  -1.19838  10.13069   4.12787
  O  -1.70638  10.97619   6.40787
  O  -0.29138  12.21309   4.93787
  S  -0.76238  10.90879   5.30787
  C  -9.68428   3.46294   6.98787
  C  -9.20548   2.74608   8.24787
  H  -10.76778   3.49633   6.87787
  H  -9.22978   4.45168   7.05787
  H  -9.17078   1.66567   8.10787
  H  -8.23588   3.23930   8.30787
  H  -9.75418   2.97861   9.15787
  O  -9.16998   2.67051   5.86787
  O  -8.66968   2.35978   3.61787
  O  -10.93558   2.63991   4.18787
  O  -9.42428   4.57883   4.45787
  S  -9.60878   3.13233   4.44787
  C   7.90672  -9.04831  -4.03213
  C   8.00602  -9.28351  -2.53213
  H   7.30392  -8.14341  -4.11213
  H   7.34562  -9.87041  -4.48213
  H   8.37902  -8.37601  -2.05213
  H   8.72462  -10.03131  -2.19213
  H   7.05762  -9.42601  -2.01213
  O   9.17482  -8.94881  -4.67213
  O  10.24702  -8.08491  -6.55213
  O   8.38002  -6.82221  -5.76213
  O  10.43902  -6.89651  -4.48213
  S   9.56132  -7.56161  -5.40213
  C  -2.03308  -5.46317  12.62787
  C  -1.79228  -3.98040  12.76787
  H  -2.90968  -5.82276  13.16787
  H  -1.17808  -6.02126  13.00787
  H  -2.79118  -3.54581  12.72787
  H  -1.20278  -3.60553  11.93787
  H  -1.21148  -3.80894  13.67787
  O  -2.36458  -5.71145  11.16787
  O  -2.18078  -6.54900   8.92787
  O  -0.53258  -7.31937  10.51787
  O  -0.57098  -4.97122   9.75787
  S  -1.31398  -6.17965   9.99787
  C   9.82702  -8.39571   3.93787
  C   8.59802  -9.26921   4.30787
  H  10.75352  -8.96971   3.92787
  H   9.91082  -7.63451   4.71787
  H   7.80992  -8.65501   4.74787
  H   8.15922  -9.93531   3.56787
  H   8.87202  -9.97401   5.09787
  O   9.69652  -7.89661   2.65787
  O  10.23702  -9.92281   1.57787
  O   9.45942  -8.17121   0.22787
  O  11.70372  -7.89061   1.21787
  S  10.34092  -8.54001   1.31787
  C   6.85402  -2.75642  12.05787
  C   6.58322  -2.40490  13.50787
  H   7.64872  -3.49715  11.96787
  H   5.90542  -3.15815  11.69787
  H   7.51912  -2.33565  14.05787
  H   5.99612  -3.19403  13.97787
  H   6.08342  -1.43721  13.54787
  O   7.20992  -1.51162  11.38787
  O   7.19632  -2.05872   9.05787
  O   6.89912   0.28104   9.73787
  O   5.12192  -1.31860  10.03787
  S   6.57942  -1.12616   9.95787
  C  -2.25358   7.54969  -9.10213
  C  -2.29898   8.05339  -7.64213
  H  -2.85188   6.64649  -9.22213
  H  -1.22648   7.37129  -9.42213
  H  -3.22798   8.53009  -7.33213
  H  -2.31048   7.07489  -7.16213
  H  -1.52368   8.71879  -7.26213
  O  -2.88878   8.69409  -9.86213
  O  -4.76938   8.29479  -11.34213
  O  -3.02988   9.64269  -12.19213
  O  -2.64538   7.28649  -11.88213
  S  -3.33618   8.44649  -11.46213
  C   2.88580  -11.41431   9.36787
  C   2.13577  -10.81131  10.56787
  H   2.37047  -11.79331   8.48787
  H   3.33638  -12.32631   9.75787
  H   1.58549  -11.56631  11.12787
  H   2.79941  -10.37231  11.30787
  H   1.44035  -10.01731  10.29787
  O   3.96495  -10.39531   9.03787
  O   4.02839  -10.97831   6.75787
  O   2.96288  -8.84931   7.40787
  O   5.38386  -9.16831   7.54787
  S   4.03583  -9.75931   7.51787
  C  -5.38278  -0.33611  -10.84213
  C  -6.73108  -0.16041  -10.15213
  H  -5.14128  -1.39361  -10.95213
  H  -4.63888   0.16569  -10.22213
  H  -7.60098  -0.17591  -10.81213
  H  -6.86628  -0.99781  -9.47213
  H  -6.87028   0.78729  -9.63213
  O  -5.59178   0.36609  -12.17213
  O  -4.82838   0.70739  -14.44213
  O  -4.41018  -1.38361  -13.31213
  O  -3.25738   0.60749  -12.54213
  S  -4.41988   0.03959  -13.21213
  C  -9.93398   1.53599  -6.32213
  C  -10.16228   1.18869  -4.87213
  H  -9.00388   2.09859  -6.40213
  H  -9.83738   0.62529  -6.91213
  H  -11.13888   0.70669  -4.83213
  H  -9.39888   0.50919  -4.49213
  H  -10.30098   2.06129  -4.23213
  O  -11.10208   2.48149  -6.73213
  O  -12.29538   1.75179  -8.66213
  O  -12.29728   4.09129  -8.17213
  O  -10.26308   2.90629  -9.05213
  S  -11.49008   2.87139  -8.26213
  C   8.17462   9.36709  -6.06213
  C   9.71162   9.45869  -5.83213
  H   8.00662   8.79769  -6.98213
  H   7.75162   8.95099  -5.15213
  H   9.93962  10.00269  -4.91213
  H  10.36462   8.58669  -5.79213
  H  10.14962  10.07479  -6.62213
  O   7.62962  10.76929  -6.20213
  O   5.49862   9.99189  -5.19213
  O   5.50762  10.57989  -7.57213
  O   5.82362  12.29849  -5.91213
  S   5.97162  10.87649  -6.22213
  C   3.93022  -6.09061  -10.41213
  C   2.42062  -6.37141  -10.66213
  H   4.38082  -7.03141  -10.09213
  H   4.14412  -5.40821  -9.59213
  H   1.88212  -6.84211  -9.83213
  H   1.84592  -5.52321  -11.03213
  H   2.50862  -7.11761  -11.44213
  O   4.67512  -5.61391  -11.62213
  O   4.29072  -7.61091  -12.95213
  O   6.34292  -7.33081  -11.86213
  O   5.78652  -5.79661  -13.63213
  S   5.33752  -6.66791  -12.60213
  C  11.74592   6.69419   7.03787
  C  11.48662   6.60089   8.50787
  H  12.80052   6.79499   6.78787
  H  11.37852   5.81279   6.51787
  H  12.35182   6.16499   9.00787
  H  10.54692   6.11459   8.76787
  H  11.44032   7.55399   9.03787
  O  11.10392   7.77779   6.69787
  O  12.71642   8.97929   5.50787
  O  10.63502  10.10409   6.24787
  O  12.48542   9.55869   7.83787
  S  11.78892   9.24179   6.58787
  C  -5.58228  -8.17131  -8.43213
  C  -5.44408  -9.53231  -7.78213
  H  -6.65678  -7.98931  -8.41213
  H  -5.08558  -7.42831  -7.81213
  H  -6.02718  -10.25231  -8.35213
  H  -5.76708  -9.40931  -6.75213
  H  -4.37578  -9.69731  -7.92213
  O  -4.99238  -8.30531  -9.84213
  O  -4.91798  -10.54731  -10.93213
  O  -5.65428  -8.59431  -12.32213
  O  -7.06518  -9.52631  -10.60213
  S  -5.70858  -9.31131  -11.01213
  C  -5.86838   8.84339  11.03787
  C  -6.40838   7.39069  10.96787
  H  -4.80538   8.77719  11.26787
  H  -6.31038   9.48169  11.79787
  H  -7.42038   7.36799  10.55787
  H  -6.35838   7.03019  11.99787
  H  -5.91238   6.66969  10.31787
  O  -6.09938   9.47719   9.75787
  O  -6.39838  11.09669   8.01787
  O  -7.34538  11.49549  10.18787
  O  -4.90138  11.48819   9.98787
  S  -6.15638  11.00669   9.46787
  C  -10.90718   9.38069  -2.70213
  C  -10.05588   9.20569  -1.43213
  H  -11.87148   8.87369  -2.74213
  H  -10.30748   8.85969  -3.45213
  H  -8.96958   9.18969  -1.52213
  H  -10.39428   8.44569  -0.72213
  H  -10.27058  10.10569  -0.85213
  O  -10.96568  10.82169  -3.19213
  O  -8.48957  10.82669  -3.66213
  O  -9.96988  12.53069  -4.61213
  O  -9.47128  12.42769  -2.12213
  S  -9.59588  11.75169  -3.42213
  C  -11.89998  -2.27971  -8.41213
  C  -13.00528  -1.55711  -7.70213
  H  -11.69378  -1.82861  -9.38213
  H  -11.10098  -2.04471  -7.71213
  H  -13.95268  -1.71301  -8.21213
  H  -13.03388  -1.95791  -6.68213
  H  -12.78418  -0.49171  -7.63213
  O  -12.19988  -3.66831  -8.41213
  O  -12.02558  -4.43921  -10.76213
  O  -10.07218  -4.53691  -9.29213
  O  -11.99798  -6.03171  -8.87213
  S  -11.52878  -4.76121  -9.43213
  C   7.86602   8.72639  -9.96213
  C   9.19332   9.42809  -9.71213
  H   7.50912   8.56519  -8.95213
  H   7.14322   9.37979  -10.45213
  H   9.60452   9.79329  -10.65213
  H   9.85772   8.78919  -9.13213
  H   9.08692  10.39819  -9.22213
  O   7.94972   7.35209  -10.80213
  O   6.04012   8.03519  -12.21213
  O   5.71822   6.14939  -10.68213
  O   7.10802   5.84249  -12.62213
  S   6.60322   6.81339  -11.64213
  C  -11.44638  -2.19131  11.09787
  C  -10.79118  -2.29431  12.46787
  H  -12.38618  -2.74331  11.10787
  H  -11.75678  -1.18631  10.81787
  H  -11.69178  -2.10131  13.05787
  H  -9.91018  -1.66231  12.58787
  H  -10.48158  -3.33231  12.58787
  O  -10.51568  -2.69631  10.14787
  O  -12.11518  -3.34331   8.55787
  O  -9.79648  -3.32531   7.86787
  O  -11.00338  -1.25431   8.29787
  S  -10.85068  -2.66031   8.56787
  C  -8.44828  11.72069   5.11787
  C  -8.97568  13.11469   5.67787
  H  -8.27738  10.97369   5.88787
  H  -7.44438  11.86569   4.71787
  H  -8.85508  13.79869   4.83787
  H  -8.32498  13.49669   6.46787
  H  -10.00068  13.03969   6.04787
  O  -9.33138  11.34369   3.94787
  O  -9.75858  10.73469   1.66787
  O  -7.47878  10.93869   2.40787
  O  -8.87218  12.96969   2.07787
  S  -8.78518  11.56869   2.41787
  C  -10.15498   2.98159  12.35787
  C  -9.90178   1.60929  12.99787
  H  -9.26628   3.22639  11.77787
  H  -10.33548   3.62179  13.22787
  H  -10.68038   1.39889  13.72787
  H  -8.91188   1.76069  13.42787
  H  -9.86898   0.89899  12.17787
  O  -11.31998   2.88349  11.52787
  O  -13.00898   4.00019  10.14787
  O  -10.70948   4.85969  10.12787
  O  -12.13628   5.17909  12.08787
  S  -11.84108   4.35619  10.93787
  C  12.56562  -8.58451   9.18787
  C  11.77262  -9.03461  10.46787
  H  12.50602  -7.53751   8.88787
  H  13.59072  -8.86511   9.42787
  H  11.81052  -10.11831  10.57787
  H  10.68592  -8.96281  10.41787
  H  12.07872  -8.62821  11.42787
  O  11.95612  -9.45911   8.07787
  O  12.35482  -7.94731   6.30787
  O  11.69422  -10.29161   5.92787
  O  13.99932  -9.73741   6.71787
  S  12.58192  -9.34941   6.58787
  C  -11.73748   9.76609  -7.13213
  C  -12.52178   8.45059  -7.31213
  H  -12.23958  10.50969  -7.74213
  H  -11.67368  10.04659  -6.07213
  H  -12.40418   7.73669  -6.50213
  H  -12.37468   7.95789  -8.27213
  H  -13.54128   8.83099  -7.38213
  O  -10.51148   9.63589  -7.69213
  O  -11.22398   9.19799  -10.04213
  O  -10.65998  11.51419  -9.42213
  O  -8.93028   9.70309  -9.53213
  S  -10.30188  10.05629  -9.28213
  C   9.87162  -11.44071  14.34787
  C   9.38862  -10.01371  14.10787
  H   9.03262  -12.00031  14.75787
  H  10.72962  -11.36461  15.01787
  H   8.86562  -9.67241  14.99787
  H   8.69662  -9.90871  13.26787
  H  10.24662  -9.35181  13.98787
  O  10.44862  -11.97351  13.18787
  O   8.97362  -13.86041  12.46787
  O   8.64062  -11.69281  11.38787
  O  10.62562  -12.94581  10.93787
  S   9.61062  -12.64581  11.94787
  576
# Step 17, RM=C2H5O4S[13] (12 atoms), C2H5O4S[18] d=688.376pm (12 atoms), C2H5O4S[33] d=692.614pm (12 atoms), C2H5O4S[30] d=725.669pm (12 atoms), C2H5O4S[34] d=747.179pm (12 atoms), C2H5O4S[27] d=758.186pm (12 atoms), C2H5O4S[28] d=804.461pm (12 atoms), C2H5O4S[45] d=832.756pm (12 atoms), C2H5O4S[25] d=842.968pm (12 atoms), C2H5O4S[2] d=865.733pm (12 atoms), C2H5O4S[44] d=868.627pm (12 atoms), C2H5O4S[47] d=931.213pm (12 atoms), C2H5O4S[32] d=940.308pm (12 atoms), C2H5O4S[26] d=974.090pm (12 atoms), C2H5O4S[19] d=1022.289pm (12 atoms), C2H5O4S[29] d=1043.867pm (12 atoms), C2H5O4S[39] d=1054.921pm (12 atoms), C2H5O4S[40] d=1062.583pm (12 atoms), C2H5O4S[6] d=1126.748pm (12 atoms), C2H5O4S[48] d=1134.020pm (12 atoms), C2H5O4S[7] d=1189.704pm (12 atoms), C2H5O4S[5] d=1216.693pm (12 atoms), C2H5O4S[11] d=1218.417pm (12 atoms), C2H5O4S[23] d=1261.323pm (12 atoms), C2H5O4S[41] d=1261.324pm (12 atoms), C2H5O4S[3] d=1265.289pm (12 atoms), C2H5O4S[38] d=1268.336pm (12 atoms), C2H5O4S[20] d=1269.099pm (12 atoms), C2H5O4S[14] d=1285.174pm (12 atoms), C2H5O4S[21] d=1285.227pm (12 atoms), C2H5O4S[31] d=1315.844pm (12 atoms), C2H5O4S[16] d=1327.541pm (12 atoms), C2H5O4S[22] d=1334.138pm (12 atoms), C2H5O4S[24] d=1363.592pm (12 atoms), C2H5O4S[4] d=1388.801pm (12 atoms), C2H5O4S[15] d=1430.166pm (12 atoms), C2H5O4S[42] d=1449.758pm (12 atoms), C2H5O4S[1] d=1463.997pm (12 atoms), C2H5O4S[10] d=1506.593pm (12 atoms), C2H5O4S[8] d=1515.062pm (12 atoms), C2H5O4S[9] d=1528.796pm (12 atoms), C2H5O4S[17] d=1596.124pm (12 atoms), C2H5O4S[46] d=1661.337pm (12 atoms), C2H5O4S[43] d=1666.968pm (12 atoms), C2H5O4S[36] d=1726.964pm (12 atoms), C2H5O4S[12] d=1850.053pm (12 atoms), C2H5O4S[35] d=1884.163pm (12 atoms), C2H5O4S[37] d=1889.655pm (12 atoms)
  C  -0.06234   0.01376   1.73456
  C  -0.22894  -1.00034   2.82456
  H  -0.82044   0.79486   1.79456
  H   0.94216   0.43626   1.75456
  H   0.44846  -1.84364   2.68456
  H  -0.02394  -0.53004   3.78456
  H  -1.17994  -1.52744   2.89456
  O  -0.30244  -0.62504   0.54456
  O   1.32136   0.86916  -0.46544
  O   0.15456  -0.82284  -1.79544
  O  -1.02244   1.12006  -0.94544
  S   0.05366   0.18336  -0.78544
  C  -3.13734  -6.25364   0.98456
  C  -1.93934  -5.44154   1.59456
  H  -3.55634  -6.61084   1.92456
  H  -3.75034  -5.53294   0.44456
  H  -2.33334  -5.02614   2.51456
  H  -1.62534  -4.63184   0.93456
  H  -1.06334  -6.00254   1.91456
  O  -2.65534  -7.40744   0.16456
  O  -3.46834  -8.82264  -1.82544
  O  -5.10334  -7.52854  -0.56544
  O  -3.42634  -6.36434  -1.96544
  S  -3.76234  -7.53754  -1.13544
  C  -1.88394   1.55076  -5.14544
  C  -1.77474   1.40816  -3.66544
  H  -1.98644   2.63326  -5.21544
  H  -2.78144   1.16616  -5.62544
  H  -2.22124   2.23006  -3.10544
  H  -0.74304   1.34646  -3.31544
  H  -2.26294   0.45016  -3.48544
  O  -0.76214   1.14766  -5.72544
  O  -1.35944   2.37316  -7.78544
  O   0.63776   2.95436  -6.64544
  O   0.46956   0.85696  -7.81544
  S  -0.23184   1.84516  -7.07544
  C   2.70876  -4.26584  -3.18544
  C   3.23476  -4.91684  -1.87544
  H   3.30786  -3.37384  -3.36544
  H   1.64416  -4.03184  -3.17544
  H   2.57066  -5.77984  -1.83544
  H   4.27396  -5.18884  -2.05544
  H   3.21476  -4.23184  -1.02544
  O   3.19566  -5.14984  -4.22544
  O   3.77806  -5.70984  -6.41544
  O   1.64446  -4.65184  -5.96544
  O   3.73496  -3.40084  -5.89544
  S   3.06766  -4.67684  -5.74544
  C  -7.29094   0.14461   1.13456
  C  -8.45084  -0.03006   2.04456
  H  -6.57104   0.90771   1.43456
  H  -6.82184  -0.83767   1.08456
  H  -8.10104  -0.50871   2.96456
  H  -8.86344   0.90891   2.41456
  H  -9.16354  -0.73347   1.61456
  O  -7.82004   0.40663  -0.12544
  O  -7.66254   1.18124  -2.52544
  O  -5.83544   1.74487  -0.88544
  O  -6.41434  -0.64394  -1.55544
  S  -6.82994   0.74825  -1.37544
  C   6.01866   3.12636   5.28456
  C   5.68766   3.36626   6.69456
  H   7.10466   3.19176   5.21456
  H   5.83366   2.06946   5.08456
  H   6.09666   4.33296   6.99456
  H   4.60866   3.37876   6.85456
  H   6.07266   2.50616   7.24456
  O   5.27666   4.17916   4.35456
  O   5.35666   3.48676   1.92456
  O   3.21466   3.59766   3.07456
  O   4.33166   5.60926   2.66456
  S   4.52466   4.16946   2.92456
  C   2.68256  -5.20654   8.10456
  C   1.39466  -4.61194   8.73456
  H   2.33176  -5.86944   7.30456
  H   3.27086  -5.72084   8.86456
  H   1.03896  -3.77084   8.14456
  H   1.47776  -4.37124   9.79456
  H   0.70026  -5.44104   8.60456
  O   3.52336  -4.19244   7.59456
  O   2.08766  -3.04884   6.01456
  O   4.42256  -2.91254   5.63456
  O   3.34816  -5.09424   5.31456
  S   3.35216  -3.79214   5.98456
  C  -5.02534   4.25406   7.01456
  C  -5.79934   3.10136   7.71456
  H  -4.53234   4.90266   7.74456
  H  -5.59934   4.98366   6.44456
  H  -6.17534   2.45506   6.92456
  H  -6.63534   3.29626   8.38456
  H  -5.15434   2.44126   8.29456
  O  -3.98834   3.71826   6.32456
  O  -3.86634   4.84616   4.24456
  O  -3.03534   6.04016   6.28456
  O  -1.87334   4.08326   5.27456
  S  -3.13234   4.76476   5.51456
  C   6.77256  -5.12584   1.55456
  C   7.21716  -4.73484   2.91456
  H   5.71516  -4.90484   1.40456
  H   6.96026  -6.18384   1.36456
  H   7.16486  -3.67384   3.15456
  H   8.24966  -5.03684   3.09456
  H   6.61486  -5.38384   3.54456
  O   7.55846  -4.37184   0.74456
  O   6.70166  -5.80584  -0.99544
  O   6.11416  -3.42484  -0.81544
  O   8.36256  -4.22184  -1.42544
  S   7.11876  -4.48284  -0.77544
  C   8.10436   2.23716  -0.20544
  C   8.37756   2.45416   1.27456
  H   9.10636   2.36616  -0.61544
  H   7.72466   1.23616  -0.40544
  H   7.49176   2.29416   1.88456
  H   9.21276   1.80416   1.52456
  H   8.78916   3.46316   1.30456
  O   7.20456   3.11716  -0.73544
  O   6.66476   2.22716  -2.79544
  O   6.26076   4.58216  -2.26544
  O   8.50376   3.94216  -2.66544
  S   7.16926   3.47316  -2.26544
  C  -7.00584  -3.96574   6.35456
  C  -6.28674  -4.78134   7.41456
  H  -7.38834  -3.01674   6.73456
  H  -7.86844  -4.54004   6.01456
  H  -5.46904  -4.24224   7.89456
  H  -7.00044  -4.96424   8.22456
  H  -5.95854  -5.76304   7.07456
  O  -5.96704  -3.74224   5.31456
  O  -7.55144  -2.79524   3.73456
  O  -5.29234  -3.08384   3.01456
  O  -5.68714  -1.36644   4.64456
  S  -6.12164  -2.64184   4.11456
  C   4.12066   7.72376  -2.84544
  C   3.57476   7.55096  -1.43544
  H   4.96536   8.41146  -2.88544
  H   4.37426   6.72946  -3.21544
  H   4.26396   6.93636  -0.85544
  H   3.49836   8.48346  -0.87544
  H   2.64116   6.99336  -1.51544
  O   3.20056   8.07396  -3.72544
  O   3.27116   5.84856  -5.00544
  O   1.93516   7.86556  -5.77544
  O   1.28206   6.54716  -3.83544
  S   2.40816   7.01456  -4.65544
  C  -5.50104  -3.92634  -5.20544
  C  -5.56944  -2.63494  -4.37544
  H  -4.89304  -4.59114  -4.58544
  H  -6.48704  -4.38694  -5.26544
  H  -6.24514  -1.92924  -4.85544
  H  -5.78154  -2.87274  -3.33544
  H  -4.58434  -2.16854  -4.38544
  O  -4.78294  -3.80364  -6.52544
  O  -5.10334  -3.72274  -8.97544
  O  -6.97204  -3.35634  -7.39544
  O  -5.20884  -1.76244  -7.74544
  S  -5.56254  -3.13054  -7.76544
  C   1.59056   1.43876  10.49456
  C   0.54756   1.57926  11.66456
  H   1.58286   0.43226  10.08456
  H   2.58226   1.74956  10.82456
  H   0.57736   2.50246  12.24456
  H  -0.45654   1.20306  11.46456
  H   0.78096   0.79436  12.38456
  O   1.25146   2.36136   9.36456
  O   1.51536   4.37376   8.04456
  O   1.67916   4.47776  10.37456
  O   3.44196   3.39066   9.12456
  S   2.03996   3.73686   9.24456
  C  -6.83564   1.58116  -5.76544
  C  -5.36017   1.33016  -5.47544
  H  -7.24874   2.20816  -4.97544
  H  -7.50464   0.72216  -5.70544
  H  -4.90498   2.32016  -5.49544
  H  -5.06471   0.62516  -6.24544
  H  -5.13303   0.95316  -4.47544
  O  -7.00144   2.14016  -7.19544
  O  -7.11194   4.30816  -6.17544
  O  -7.02414   3.99616  -8.54544
  O  -9.07234   3.52816  -7.29544
  S  -7.60104   3.62216  -7.33544
  C  -3.90204   9.54316   3.52456
  C  -3.55994   8.13616   4.05456
  H  -3.39834  10.27816   4.15456
  H  -4.97064   9.69116   3.36456
  H  -4.13744   7.95916   4.95456
  H  -2.53034   7.96816   4.36456
  H  -3.76684   7.30416   3.37456
  O  -3.32174   9.71316   2.18456
  O  -1.71134  10.48316   0.55456
  O  -1.15804  10.54916   2.86456
  O  -2.81784  12.08416   2.14456
  S  -2.20404  10.79716   1.89456
  C  -7.90014  -0.33054   7.20456
  C  -7.72684  -1.10024   8.54456
  H  -8.03244  -0.88044   6.27456
  H  -7.13734   0.40156   6.93456
  H  -7.95424  -0.45854   9.39456
  H  -6.68794  -1.42324   8.61456
  H  -8.34704  -1.99594   8.51456