  912
# Step 139, RM=C6H11N2[34] (19 atoms), C6H11N2[20] d=587.869pm (19 atoms), C6H11N2[35] d=698.685pm (19 atoms), C6H11N2[24] d=699.437pm (19 atoms), C6H11N2[3] d=734.920pm (19 atoms), C6H11N2[30] d=741.499pm (19 atoms), C6H11N2[28] d=751.490pm (19 atoms), C6H11N2[42] d=781.083pm (19 atoms), C6H11N2[4] d=846.936pm (19 atoms), C6H11N2[18] d=894.439pm (19 atoms), C6H11N2[26] d=941.923pm (19 atoms), C6H11N2[13] d=977.463pm (19 atoms), C6H11N2[27] d=985.060pm (19 atoms), C6H11N2[2] d=1016.979pm (19 atoms), C6H11N2[38] d=1037.328pm (19 atoms), C6H11N2[44] d=1056.125pm (19 atoms), C6H11N2[23] d=1094.138pm (19 atoms), C6H11N2[21] d=1109.767pm (19 atoms), C6H11N2[1] d=1150.267pm (19 atoms), C6H11N2[43] d=1155.775pm (19 atoms), C6H11N2[22] d=1159.658pm (19 atoms), C6H11N2[9] d=1167.458pm (19 atoms), C6H11N2[47] d=1178.012pm (19 atoms), C6H11N2[5] d=1197.139pm (19 atoms), C6H11N2[39] d=1240.602pm (19 atoms), C6H11N2[46] d=1258.042pm (19 atoms), C6H11N2[8] d=1264.015pm (19 atoms), C6H11N2[32] d=1272.496pm (19 atoms), C6H11N2[14] d=1287.958pm (19 atoms), C6H11N2[40] d=1290.329pm (19 atoms), C6H11N2[15] d=1293.950pm (19 atoms), C6H11N2[25] d=1310.272pm (19 atoms), C6H11N2[37] d=1364.199pm (19 atoms), C6H11N2[36] d=1376.002pm (19 atoms), C6H11N2[7] d=1407.395pm (19 atoms), C6H11N2[48] d=1429.070pm (19 atoms), C6H11N2[29] d=1461.429pm (19 atoms), C6H11N2[10] d=1556.440pm (19 atoms), C6H11N2[6] d=1563.173pm (19 atoms), C6H11N2[45] d=1597.852pm (19 atoms), C6H11N2[19] d=1610.995pm (19 atoms), C6H11N2[11] d=1625.135pm (19 atoms), C6H11N2[17] d=1690.435pm (19 atoms), C6H11N2[31] d=1756.739pm (19 atoms), C6H11N2[41] d=1762.097pm (19 atoms), C6H11N2[12] d=1780.227pm (19 atoms), C6H11N2[33] d=1863.439pm (19 atoms), C6H11N2[16] d=1889.475pm (19 atoms)
  C   0.43539   0.51904  -0.59091
  C   1.35009  -1.65176  -0.12091
  C  -0.99681  -0.95376   0.29909
  C  -1.62311   0.22174   0.23909
  C  -0.97121   2.59614  -0.51091
  C   2.06379  -1.26716   1.17909
  H   1.29799   0.96184  -1.07091
  H   2.04229  -1.49616  -0.95091
  H   0.93519  -2.65636  -0.04091
  H  -1.15341  -1.83096   0.90909
  H  -2.55871   0.62384   0.59909
  H  -0.84601   3.13774   0.42909
  H  -0.35551   3.13064  -1.23091
  H  -2.01241   2.79874  -0.76091
  H   1.25089  -1.24816   1.89909
  H   2.68799  -0.38546   1.31909
  H   2.70109  -2.12956   1.36909
  N   0.23009  -0.74826  -0.28091
  N  -0.73851   1.14244  -0.32091
  C   0.68100   3.87784  -3.49091
  C  -0.53430   3.48454  -5.71091
  C  -0.32705   5.65174  -4.37091
  C   0.14726   5.97174  -3.16091
  C   1.72208   4.96534  -1.44091
  C   0.18413   2.21034  -6.17091
  H   1.14719   2.91394  -3.34091
  H  -1.53285   3.15694  -5.42091
  H  -0.57144   4.14064  -6.58091
  H  -0.88763   6.20994  -5.11091
  H  -0.07181   6.89484  -2.64091
  H   1.81624   6.01194  -1.15091
  H   2.75920   4.75404  -1.70091
  H   1.27662   4.32394  -0.68091
  H   1.13400   2.31244  -6.69091
  H   0.44825   1.48704  -5.39091
  H  -0.52373   1.70114  -6.82091
  N  -0.02391   4.26914  -4.56091
  N   0.79584   4.87864  -2.61091
  C   1.51289   0.97444   7.89909
  C   2.81719   2.49904   6.50909
  C   1.40229   0.57954   5.77909
  C   0.82079  -0.46316   6.40909
  C   0.07359  -0.75976   8.73909
  C   3.71259   2.30194   5.32909
  H   1.77129   1.36794   8.86909
  H   3.53089   2.54084   7.32909
  H   2.19539   3.39254   6.55909
  H   1.55509   0.88084   4.74909
  H   0.29499  -1.32906   6.03909
  H  -0.84521  -1.13016   8.27909
  H  -0.31141  -0.00936   9.42909
  H   0.60009  -1.58106   9.21909
  H   4.43169   3.12104   5.31909
  H   4.20309   1.32984   5.27909
  H   3.14169   2.52194   4.42909
  N   1.95199   1.38894   6.71909
  N   0.82379  -0.11426   7.71909
  C  -2.83821  -2.78016  -5.46091
  C  -0.38691  -2.72916  -5.87091
  C  -2.13831  -4.45816  -6.58091
  C  -3.42301  -4.54916  -6.46091
  C  -4.88831  -3.69616  -4.50091
  C  -0.27001  -1.26216  -5.86091
  H  -2.68431  -2.15916  -4.58091
  H   0.22719  -3.19916  -6.64091
  H   0.06359  -3.06016  -4.93091
  H  -1.40891  -5.20616  -6.86091
  H  -4.04211  -5.42616  -6.58091
  H  -4.51511  -4.22116  -3.62091
  H  -5.33021  -2.74816  -4.19091
  H  -5.69151  -4.34116  -4.86091
  H  -0.93291  -0.81116  -6.60091
  H   0.67609  -1.01416  -6.35091
  H  -0.23571  -0.86816  -4.85091
  N  -1.75471  -3.24316  -6.03091
  N  -3.87721  -3.54016  -5.54091
  C   1.91059  -5.83897  -2.72091
  C   1.18859  -8.01742  -3.64091
  C   3.45459  -7.07404  -3.48091
  C   4.06659  -6.02474  -2.85091
  C   3.05559  -4.21371  -1.36091
  C  -0.25341  -7.61203  -3.73091
  H   0.99759  -5.26946  -2.63091
  H   1.20659  -8.85893  -2.95091
  H   1.33359  -8.49508  -4.61091
  H   3.85059  -7.97476  -3.92091
  H   5.08459  -5.73378  -2.63091
  H   3.04359  -3.31011  -1.96091
  H   3.92859  -4.29771  -0.71091
  H   2.15859  -4.21208  -0.74091
  H  -0.34841  -7.09504  -4.68091
  H  -0.92341  -8.46376  -3.84091
  H  -0.64841  -6.96566  -2.95091
  N   2.16659  -7.05708  -3.17091
  N   2.99859  -5.30450  -2.31091
  C   3.50859  -7.09416   1.23909
  C   1.09059  -7.64916   1.91909
  C   2.23759  -5.43116   1.99909
  C   3.42359  -4.97716   1.45909
  C   5.63859  -5.90116   0.58909
  C   1.02959  -8.54416   0.72909
  H   3.81859  -8.08716   0.93909
  H   1.14759  -8.30016   2.78909
  H   0.20959  -7.01316   1.99909
  H   1.36859  -4.89016   2.34909
  H   3.81559  -3.97216   1.41909
  H   6.08059  -4.92816   0.79909
  H   6.16659  -6.45116   1.36909
  H   5.92359  -6.38516  -0.35091
  H   1.90959  -8.65716   0.09909
  H   0.21059  -8.25516   0.06909
  H   0.67659  -9.52716   1.03909
  N   2.30059  -6.77916   1.84909
  N   4.20659  -6.03916   0.95909
  C   7.70059   3.13874   2.51909
  C   6.39689   4.55854   0.90909
  C   6.37889   1.95334   1.18909
  C   7.08369   1.12774   1.91909
  C   8.50899   1.26244   3.96909
  C   5.47449   4.60534  -0.35091
  H   8.17099   3.86034   3.16909
  H   6.01899   5.22364   1.67909
  H   7.36789   5.04694   0.81909
  H   5.52499   1.77044   0.54909
  H   6.97009   0.05624   1.99909
  H   8.29409   0.20624   4.12909
  H   9.59789   1.30944   3.94909
  H   8.25279   1.79834   4.87909
  H   4.83959   5.48674  -0.44091
  H   4.78049   3.78864  -0.55091
  H   6.18739   4.62204  -1.18091
  N   6.75579   3.24214   1.52909
  N   7.81889   1.88074   2.81909
  C  -5.44471  -3.75706   1.75909
  C  -5.56691  -6.06246   2.88909
  C  -6.50341  -5.25116   0.59909
  C  -6.13681  -4.22706  -0.17091
  C  -5.19861  -1.82936   0.20909
  C  -6.50961  -7.25476   3.00909
  H  -5.03021  -3.32126   2.65909
  H  -4.53481  -6.40696   2.94909
  H  -5.58031  -5.56486   3.85909
  H  -7.22191  -6.02366   0.36909
  H  -6.32431  -4.16256  -1.23091
  H  -6.09111  -1.42026  -0.26091
  H  -4.80681  -1.35386   1.10909
  H  -4.46461  -1.92786  -0.59091
  H  -6.56001  -7.60106   4.03909
  H  -7.51901  -6.99626   2.68909
  H  -6.18771  -8.07646   2.36909
  N  -5.85041  -5.00556   1.81909
  N  -5.58421  -3.22046   0.58909
  C   5.35009  -2.86716   6.78909
  C   4.05579  -1.70616   5.12909
  C   6.50459  -1.87076   5.28909
  C   7.39149  -2.33866   6.20909
  C   7.17949  -3.76306   8.37909
  C   3.48419  -2.91276   4.26909
  H   4.60319  -3.30076   7.43909
  H   4.23399  -0.91016   4.40909
  H   3.30999  -1.40016   5.85909
  H   6.71419  -1.31086   4.38909
  H   8.45709  -2.41956   6.35909
  H   8.09969  -4.24146   8.03909
  H   6.47319  -4.49156   8.77909
  H   7.44829  -3.06686   9.16909
  H   3.43709  -3.73986   4.97909
  H   2.47909  -2.65006   3.93909
  H   4.07919  -3.23326   3.41909
  N   5.30359  -2.02156   5.82909
  N   6.64379  -2.96626   7.21909
  C   3.62059   7.49924   2.44909
  C   5.60559   8.78794   1.60909
  C   5.40459   7.21804   3.59909
  C   4.44359   6.69674   4.29909
  C   1.98159   6.41974   3.95909
  C   6.03059   8.28834   0.21909
  H   2.87559   7.93804   1.80909
  H   6.40359   9.17144   2.23909
  H   5.05659   9.72984   1.60909
  H   6.46859   7.23114   3.77909
  H   4.51559   6.09234   5.18909
  H   1.20159   7.18134   3.95909
  H   1.81059   6.00934   4.95909
  H   1.69159   5.60974   3.28909
  H   5.57259   7.39634  -0.21091
  H   7.11759   8.23724   0.13909
  H   5.71859   9.10594  -0.43091
  N   4.87259   7.85234   2.49909
  N   3.28559   6.97154   3.60909
  C   0.40269  -7.85576   5.52909
  C   2.39739  -9.29876   5.79909
  C   2.30409  -6.82696   5.20909
  C   1.34459  -5.98826   4.90909
  C  -1.08881  -6.03516   4.92909
  C   3.93029  -9.41366   5.64909
  H  -0.36081  -8.50366   5.93909
  H   2.09239  -9.45906   6.83909
  H   1.89329  -10.15346   5.34909
  H   3.34639  -6.55016   5.26909
  H   1.47699  -4.97626   4.55909
  H  -0.99501  -5.02896   5.33909
  H  -1.60331  -6.24446   3.98909
  H  -1.74431  -6.39346   5.71909
  H   4.13169  -9.11796   4.61909
  H   4.38769  -8.69136   6.31909
  H   4.29919  -10.41416   5.86909
  N   1.70789  -8.02006   5.48909
  N   0.18579  -6.69726   4.99909
  C  -8.49851   0.32534   4.91909
  C  -7.03961  -0.95616   3.39909
  C  -9.52921  -1.37546   3.85909
  C  -10.40381  -0.78336   4.75909
  C  -10.48031   1.38734   6.14909
  C  -5.87121  -0.16456   3.96909
  H  -7.79441   1.03234   5.32909
  H  -6.76931  -2.01196   3.38909
  H  -7.24221  -0.84526   2.33909
  H  -9.70501  -2.29816   3.32909
  H  -11.38951  -1.08726   5.07909
  H  -11.15791   0.94144   6.87909
  H  -10.96521   2.16064   5.55909
  H  -9.75071   1.93464   6.74909
  H  -4.95531  -0.36636   3.40909
  H  -5.70621  -0.46976   4.99909
  H  -6.03631   0.90454   3.82909
  N  -8.28561  -0.70356   4.10909
  N  -9.80751   0.36424   5.25909
  C   9.38589   1.98994  -4.10091
  C   9.41959   1.60474  -6.56091
  C   7.54239   1.03664  -4.92091
  C   7.44069   1.07774  -3.56091
  C   8.83839   2.10144  -1.71091
  C   8.41169   1.20694  -7.67091
  H  10.28919   2.57784  -4.03091
  H   9.83979   2.55874  -6.87091
  H  10.25359   0.90484  -6.61091
  H   6.77259   0.77644  -5.63091
  H   6.66979   0.77294  -2.87091
  H   9.34669   1.41554  -1.03091
  H   9.52269   2.94804  -1.77091
  H   7.90739   2.48134  -1.29091
  H   7.52879   1.84104  -7.59091
  H   8.91069   1.24134  -8.64091
  H   7.99739   0.22024  -7.46091
  N   8.80449   1.54944  -5.19091
  N   8.65299   1.63704  -3.09091
  C  -4.81041  -3.80066   7.83909
  C  -6.52121  -4.53846   6.12909
  C  -4.40791  -5.65096   6.85909
  C  -3.46951  -5.44806   7.74909
  C  -3.04001  -3.85706   9.54909
  C  -7.61661  -3.96566   7.01909
  H  -5.19341  -2.79556   7.93909
  H  -6.26881  -3.90966   5.27909
  H  -6.70051  -5.54836   5.75909
  H  -4.44921  -6.45126   6.12909
  H  -2.53331  -5.92506   7.99909
  H  -2.03841  -4.27086   9.43909
  H  -3.53451  -3.98846  10.51909
  H  -2.94411  -2.77166   9.51909
  H  -7.36401  -2.95246   7.32909
  H  -7.80291  -4.55286   7.91909
  H  -8.52111  -3.94566   6.40909
  N  -5.22831  -4.55446   6.87909
  N  -3.81601  -4.39176   8.45909
  C  -3.77441   4.29724   9.03909
  C  -5.19061   3.19324   7.28909
  C  -5.03111   5.63084   7.84909
  C  -4.36951   6.40734   8.59909
  C  -2.91231   6.16204  10.57909
  C  -4.88471   3.30434   5.79909
  H  -3.31861   3.40654   9.44909
  H  -4.87501   2.21874   7.65909
  H  -6.26061   3.04594   7.43909
  H  -5.85091   5.88254   7.18909
  H  -4.48251   7.47854   8.67909
  H  -2.00061   6.67304  10.26909
  H  -3.44941   6.85044  11.23909
  H  -2.47851   5.47504  11.30909
  H  -4.04051   2.67864   5.50909
  H  -4.61791   4.30054   5.44909
  H  -5.79011   2.99674   5.27909
  N  -4.64581   4.29704   8.05909
  N  -3.55601   5.59954   9.39909
  C  -3.68051   4.55463  -7.30091
  C  -2.54591   4.68189  -9.45091
  C  -4.98341   5.20661  -8.92091
  C  -5.60811   5.38265  -7.78091
  C  -4.97901   5.26328  -5.29091
  C  -2.83271   4.58564  -10.95091
  H  -2.81301   4.29434  -6.72091
  H  -2.00731   5.59170  -9.18091
  H  -1.91341   3.83953  -9.17091
  H  -5.33071   5.53467  -9.89091
  H  -6.51311   5.95562  -7.64091
  H  -5.92531   5.73111  -5.02091
  H  -4.76761   4.40041  -4.66091
  H  -4.24461   6.00610  -4.98091
  H  -3.32151   3.64787  -11.21091
  H  -1.92971   4.74456  -11.54091
  H  -3.52661   5.33715  -11.33091
  N  -3.72481   4.76047  -8.63091
  N  -4.80071   4.98767  -6.73091
  C   5.28479   4.66554   8.39909
  C   7.34699   3.33834   8.83909
  C   5.20239   3.46204  10.10909
  C   4.01489   4.03344   9.95909
  C   3.27679   6.05084   8.60909
  C   7.37249   2.16154   7.91909
  H   5.84809   5.21844   7.65909
  H   7.99319   4.09734   8.39909
  H   7.85159   3.09504   9.77909
  H   5.55249   2.74244  10.83909
  H   3.08009   4.09744  10.48909
  H   2.72939   6.43654   9.46909
  H   3.78559   6.99214   8.39909
  H   2.54989   5.77384   7.84909
  H   6.49009   1.58534   8.19909
  H   8.30249   1.61094   8.05909
  H   7.20089   2.44404   6.87909
  N   5.99669   3.91854   9.12909
  N   4.11459   4.92854   8.92909
  C  -3.14771   9.50372  -1.90091
  C  -3.33251  10.25930  -4.19091
  C  -2.32631  11.43963  -2.13091
  C  -2.24261  11.11544  -0.82091
  C  -3.02141   9.02350   0.39909
  C  -3.96551  11.52159  -4.80091
  H  -3.50711   8.50590  -2.10091
  H  -2.27541  10.13229  -4.42091
  H  -3.83131   9.32332  -4.44091
  H  -1.99761  12.31874  -2.66091
  H  -1.81921  11.66077   0.00909
  H  -3.72041   9.48936   1.09909
  H  -3.64581   8.17984   0.10909
  H  -2.18811   8.69545   1.02909
  H  -4.04661  12.27042  -4.01091
  H  -3.41901  11.77604  -5.70091
  H  -4.95391  11.29458  -5.20091
  N  -3.01101  10.41626  -2.77091
  N  -2.79291   9.83766  -0.71091
  C  -3.66141   9.29364   4.97909
  C  -5.87111   8.30434   4.45909
  C  -5.16811   9.34574   6.53909
  C  -4.16861  10.24134   6.85909
  C  -1.81791  10.62324   5.99909
  C  -5.76231   8.53764   3.03909
  H  -3.17451   8.76364   4.16909
  H  -5.61451   7.25254   4.58909
  H  -6.86601   8.45534   4.87909
  H  -6.04811   9.05334   7.08909
  H  -4.09271  10.92344   7.68909
  H  -1.67441  11.56484   5.46909
  H  -1.13671   9.91704   5.52909
  H  -1.48501  10.80244   7.01909
  H  -4.94991   7.89874   2.68909
  H  -5.50581   9.58874   2.89909
  H  -6.64911   8.36574   2.42909
  N  -4.92981   9.00004   5.25909
  N  -3.11841  10.04014   5.97909
  C  -9.64351   4.47954   1.49909
  C  -10.09881   2.05064   0.91909
  C  -11.48941   4.09964   0.35909
  C  -11.33831   5.44504   0.57909
  C  -10.02511   6.91074   2.07909
  C  -11.28201   1.33444   1.74909
  H  -8.71431   4.29034   2.00909
  H  -9.23241   2.06504   1.57909
  H  -9.74541   1.57624   0.00909
  H  -12.23941   3.51294  -0.15091
  H  -12.00261   6.28364   0.43909
  H  -9.07991   7.04074   2.60909
  H  -10.03261   7.78854   1.43909
  H  -10.80241   7.12014   2.81909
  H  -12.29291   1.54274   1.39909
  H  -11.12611   0.25714   1.79909
  H  -11.28211   1.57094   2.80909
  N  -10.31231   3.49604   0.85909
  N  -10.27751   5.60604   1.35909
  C   6.94559   6.71184  -5.56091
  C   5.67559   6.13584  -7.69091
  C   7.88759   5.20084  -6.75091
  C   8.66559   5.39784  -5.69091
  C   8.75959   7.19084  -3.82091
  C   6.22459   6.71284  -9.06091
  H   6.39459   7.60784  -5.32091
  H   4.93259   6.89684  -7.46091
  H   5.20959   5.16584  -7.87091
  H   7.99359   4.49084  -7.55091
  H   9.53659   4.83084  -5.40091
  H   9.82259   7.00684  -3.98091
  H   8.33359   6.87784  -2.87091
  H   8.55959   8.26284  -3.84091
  H   6.70459   6.02184  -9.75091
  H   6.97359   7.49684  -8.95091
  H   5.46559   7.31384  -9.56091
  N   6.76159   5.96784  -6.63091
  N   8.08759   6.41784  -4.94091
  C   8.83119  -7.16246  -5.62091
  C   8.89399  -6.98396  -3.17091
  C   7.01959  -6.43926  -4.73091
  C   6.81589  -6.65336  -6.08091
  C   8.13979  -7.60406  -8.03091
  C   8.45149  -5.86186  -2.18091
  H   9.79659  -7.64646  -5.64091
  H   9.98269  -6.94476  -3.21091
  H   8.67879  -7.95286  -2.72091
  H   6.38719  -6.02796  -3.96091
  H   5.96919  -6.53036  -6.73091
  H   7.20579  -7.80116  -8.55091
  H   8.57819  -6.85576  -8.69091
  H   8.68199  -8.50096  -8.33091
  H   9.19679  -5.77236  -1.39091
  H   8.55439  -4.90406  -2.69091
  H   7.40579  -5.83426  -1.87091
  N   8.29449  -6.77076  -4.50091
  N   8.00949  -7.07696  -6.65091
  C   1.33359   8.86294  -6.12091
  C   0.56059   8.50714  -8.47091
  C   2.36459   9.92654  -7.65091
  C   2.92359  10.30774  -6.51091
  C   2.35059   9.75064  -4.06091
  C   1.04059   8.45564  -9.97091
  H   0.58959   8.29364  -5.59091
  H  -0.21941   9.26704  -8.42091
  H  -0.12041   7.68514  -8.25091
  H   2.53059  10.29164  -8.65091
  H   3.66159  11.04174  -6.22091
  H   2.02359   8.79874  -3.64091
  H   1.70059  10.58334  -3.79091
  H   3.35659   9.87554  -3.66091
  H   1.04859   9.40484  -10.50091
  H   0.35059   7.79114  -10.49091
  H   1.94859   7.86234  -10.07091
  N   1.36959   9.01164  -7.42091
  N   2.25159   9.61434  -5.53091
  C  -8.74241   3.75884  -5.11091
  C  -9.83541   4.24174  -7.30091
  C  -10.69041   4.65154  -4.99091
  C  -10.23041   4.38274  -3.79091
  C  -8.15641   3.45014  -2.69091
  C  -10.36341   5.49654  -8.02091
  H  -7.86241   3.37174  -5.60091
  H  -10.29541   3.30704  -7.62091
  H  -8.79641   4.17614  -7.62091
  H  -11.57541   5.19724  -5.28091
  H  -10.73841   4.62904  -2.87091
  H  -8.75741   3.23724  -1.80091
  H  -7.42541   2.64254  -2.74091
  H  -7.58941   4.27674  -2.26091
  H  -10.42041   5.44584  -9.11091
  H  -11.36641   5.62764  -7.62091
  H  -9.69241   6.32754  -7.81091
  N  -9.73241   4.24684  -5.86091
  N  -8.95341   3.87554  -3.79091
  C  -4.19561  -2.77776  -10.55091
  C  -5.83071  -3.60086  -12.28091
  C  -6.15581  -1.93066  -10.36091
  C  -5.43981  -1.28716  -9.37091
  C  -3.08851  -1.52306  -8.71091
  C  -6.75821  -2.81106  -13.11091
  H  -3.44051  -3.52336  -10.75091
  H  -6.36381  -4.46786  -11.89091
  H  -5.06061  -4.05356  -12.90091
  H  -7.18951  -1.69336  -10.56091
  H  -5.69991  -0.64156  -8.54091
  H  -3.53801  -1.61056  -7.72091
  H  -2.31981  -2.26536  -8.93091
  H  -2.71501  -0.50886  -8.85091
  H  -6.19921  -1.93086  -13.43091
  H  -7.34511  -3.39416  -13.82091
  H  -7.61581  -2.42386  -12.56091
  N  -5.40121  -2.82806  -11.08091
  N  -4.15641  -1.87126  -9.57091
  C  -9.57711  -6.41851  -5.25091
  C  -10.56501  -5.79112  -3.15091
  C  -9.51521  -7.98776  -3.77091
  C  -8.92671  -8.51300  -4.88091
  C  -8.02781  -7.41866  -6.85091
  C  -10.01671  -5.87075  -1.72091
  H  -9.64831  -5.45089  -5.72091
  H  -10.51291  -4.72256  -3.36091
  H  -11.64721  -5.84836  -3.27091
  H  -9.73501  -8.56979  -2.88091
  H  -8.39181  -9.44156  -5.01091
  H  -7.93321  -8.27567  -7.52091
  H  -8.16331  -6.56372  -7.51091
  H  -7.05341  -7.25931  -6.39091
  H  -9.99561  -6.86752  -1.28091
  H  -8.97471  -5.55131  -1.71091
  H  -10.57451  -5.20538  -1.06091
  N  -9.93341  -6.71894  -4.06091
  N  -8.91941  -7.47358  -5.77091
  C  -2.79441  -0.02596  11.60909
  C  -1.03341  -1.80076  11.95909
  C  -1.64741  -0.00276  13.43909
  C  -2.48841   0.99054  13.43909
  C  -4.16241   1.90974  11.89909
  C  -1.43741  -2.85726  13.01909
  H  -3.40241  -0.39726  10.79909
  H  -1.34241  -2.07806  10.94909
  H   0.04359  -1.66336  12.05909
  H  -1.02841  -0.32926  14.25909
  H  -2.72941   1.72344  14.18909
  H  -4.04241   2.98274  12.04909
  H  -4.56541   1.76964  10.89909
  H  -4.97241   1.70664  12.59909
  H  -0.65341  -3.61316  13.05909
  H  -1.45341  -2.61876  14.07909
  H  -2.21441  -3.55176  12.69909
  N  -1.72641  -0.59106  12.17909
  N  -3.15941   0.96414  12.23909
  C   1.93069  -12.23086   1.06909
  C   4.04119  -13.00616   0.05909
  C   3.68099  -12.33346   2.42909
  C   2.60109  -12.07136   3.15909
  C   0.14529  -11.92196   2.69909
  C   3.28759  -13.51296  -1.15091
  H   1.21249  -12.52776   0.31909
  H   4.72099  -13.82366   0.29909
  H   4.75539  -12.22556  -0.20091
  H   4.71689  -12.37396   2.72909
  H   2.52369  -11.94586   4.22909
  H  -0.21131  -12.88666   3.05909
  H  -0.00691  -11.05986   3.34909
  H  -0.61041  -11.76446   1.92909
  H   3.14189  -14.59316  -1.16091
  H   3.72719  -13.36026  -2.14091
  H   2.28059  -13.13746  -1.34091
  N   3.22079  -12.48476   1.15909
  N   1.52209  -12.01446   2.30909
  C  -8.92711   0.62794  -8.18091
  C  -7.20701   2.21754  -9.09091
  C  -9.53921   1.73184  -9.97091
  C  -10.39381   0.76764  -9.70091
  C  -10.70311  -0.97546  -7.80091
  C  -6.34951   2.04564  -10.32091
  H  -8.49501   0.44574  -7.20091
  H  -7.48361   3.25654  -8.91091
  H  -6.58951   1.92034  -8.24091
  H  -9.66861   2.54214  -10.67091
  H  -11.38461   0.61194  -10.10091
  H  -11.76251  -0.92346  -8.05091
  H  -10.26001  -1.92486  -8.10091
  H  -10.71101  -0.82076  -6.72091
  H  -5.78471   1.12054  -10.44091
  H  -5.55441   2.79134  -10.33091
  H  -6.90611   2.15034  -11.25091
  N  -8.54421   1.51164  -9.08091
  N  -10.01591   0.16014  -8.50091
  C  -5.20991  -11.19266   1.90909
  C  -6.58432  -12.05016   3.82909
  C  -4.29965  -12.65016   3.19909
  C  -3.42264  -12.37096   2.21909
  C  -3.21863  -10.52786   0.59909
  C  -7.66962  -11.00336   3.50909
  H  -5.90521  -10.40096   1.67909
  H  -6.28019  -11.77916   4.83909
  H  -6.94685  -13.07816   3.82909
  H  -4.19069  -13.24936   4.08909
  H  -2.38517  -12.63096   2.06909
  H  -3.87666  -9.85606   0.04909
  H  -2.49514  -11.04696  -0.03091
  H  -2.56076  -9.87136   1.16909
  H  -8.66749  -11.34216   3.78909
  H  -7.41263  -10.09636   4.05909
  H  -7.98329  -10.79026   2.48909
  N  -5.41303  -11.99716   2.91909
  N  -4.01535  -11.46166   1.42909
  C  12.72051  -2.29716  -3.52091
  C  11.84794  -3.40516  -5.60091
  C  11.10497  -3.62416  -3.23091
  C  11.56074  -3.31516  -2.04091
  C  13.54521  -2.15116  -1.16091
  C  11.43152  -4.81716  -5.87091
  H  13.38536  -1.68316  -4.11091
  H  12.58713  -3.11316  -6.34091
  H  10.97463  -2.83316  -5.91091
  H  10.35977  -4.34816  -3.52091
  H  11.20220  -3.66016  -1.08091
  H  13.06081  -2.24716  -0.18091
  H  13.85709  -1.10716  -1.13091
  H  14.37126  -2.85016  -1.29091
  H  10.47291  -4.91416  -5.36091
  H  11.28051  -5.00416  -6.94091
  H  12.01918  -5.64016  -5.47091
  N  11.95107  -3.08016  -4.12091
  N  12.58153  -2.42116  -2.18091
  C   1.58659  -6.04316  -11.02091
  C   2.78559  -5.00516  -12.82091
  C   3.78859  -5.94616  -10.77091
  C   3.25559  -6.66616  -9.78091
  C   0.95259  -6.97816  -8.73091
  C   3.60059  -5.75716  -13.91091
  H   0.65159  -5.70716  -11.44091
  H   1.76459  -4.90716  -13.19091
  H   3.10859  -3.98616  -12.61091
  H   4.75259  -5.57816  -11.09091
  H   3.73959  -7.19216  -8.97091
  H   0.03759  -7.50916  -8.99091
  H   0.68759  -6.06016  -8.21091
  H   1.45859  -7.51216  -7.93091
  H   3.56559  -5.08816  -14.77091
  H   3.13559  -6.69816  -14.20091
  H   4.61659  -5.98616  -13.59091
  N   2.71859  -5.65716  -11.58091
  N   1.83859  -6.73916  -9.91091
  C   4.23029   4.44874  -11.11091
  C   4.35739   6.52824  -12.50091
  C   6.11639   4.63214  -12.14091
  C   6.21699   3.60534  -11.29091
  C   4.81239   2.62234  -9.56091
  C   5.23079   7.29254  -13.47091
  H   3.38229   4.96294  -10.68091
  H   3.94609   7.10104  -11.67091
  H   3.38629   6.43594  -12.98091
  H   6.83709   5.02114  -12.85091
  H   7.01339   2.89054  -11.14091
  H   4.40429   3.08914  -8.66091
  H   4.16159   1.80824  -9.88091
  H   5.78219   2.20924  -9.28091
  H   6.10509   7.64494  -12.92091
  H   4.88039   8.22264  -13.91091
  H   5.67949   6.78064  -14.32091
  N   4.88439   5.22114  -11.95091
  N   5.02919   3.48344  -10.68091
  C  -7.20571  10.81634  -2.08091
  C  -8.12301  11.44404  -4.44091
  C  -6.52141  12.68994  -2.94091
  C  -5.83041  12.45114  -1.85091
  C  -6.08161  10.91684   0.05909
  C  -9.11471  10.27964  -4.37091
  H  -7.66861   9.84644  -1.97091
  H  -8.56291  12.40014  -4.72091
  H  -7.38671  11.26274  -5.22091
  H  -6.47691  13.55474  -3.58091
  H  -5.03091  12.99754  -1.38091
  H  -6.59621  11.68124   0.63909
  H  -6.51051   9.95004   0.31909
  H  -5.03271  10.81504   0.33909
  H  -10.05971  10.60404  -3.93091
  H  -9.41301  10.16304  -5.41091
  H  -8.80021   9.36484  -3.87091
  N  -7.43641  11.66624  -3.11091
  N  -6.36901  11.36044  -1.26091
  C   6.36549  -1.50316  -12.24091
  C   7.91189  -0.57076  -13.80091
  C   7.61009   0.14574  -11.51091
  C   6.88079  -0.37816  -10.49091
  C   5.04279  -2.00646  -10.18091
  C   9.39969  -0.71386  -13.78091
  H   5.98159  -2.33436  -12.81091
  H   7.50319  -1.43366  -14.33091
  H   7.41709   0.17834  -14.42091
  H   8.37339   0.90964  -11.52091
  H   6.80999  -0.23456  -9.42091
  H   4.16819  -1.37936  -10.01091
  H   5.44089  -2.24126  -9.19091
  H   4.69339  -2.99517  -10.48091
  H   9.91689  -0.63326  -14.73091
  H   9.80969   0.00164  -13.06091
  H   9.70329  -1.70776  -13.45091
  N   7.24819  -0.58496  -12.60091
  N   6.06819  -1.36236  -10.98091
  C  10.59289  -6.96656   5.23909
  C   9.30549  -9.14306   5.31909
  C  11.64139  -8.59866   6.23909
  C  12.28229  -7.47706   6.53909
  C  11.81969  -5.01066   6.12909
  C   9.68219  -10.32136   4.46909
  H   9.98189  -6.39876   4.55909
  H   8.39089  -8.62306   5.02909
  H   8.99489  -9.49746   6.29909
  H  11.87839  -9.63306   6.43909
  H  13.24129  -7.35376   7.01909
  H  12.88419  -4.91196   5.91909
  H  11.36169  -4.43746   5.32909
  H  11.54809  -4.46536   7.03909
  H   8.72239  -10.80876   4.28909
  H  10.10559  -10.10926   3.47909
  H  10.42089  -10.97136   4.93909
  N  10.47959  -8.28206   5.58909
  N  11.53609  -6.44316   5.96909
  C   0.35709  -11.62396  -8.73091
  C   0.35509  -10.17076  -10.77091
  C  -1.11481  -10.02146  -8.78091
  C  -1.29381  -10.80066  -7.73091
  C  -0.56541  -12.99396  -6.83091
  C  -0.52621  -10.57276  -11.90091
  H   1.11339  -12.34456  -9.00091
  H   0.51669  -9.09466  -10.71091
  H   1.34109  -10.53826  -11.06091
  H  -1.66941  -9.11266  -8.96091
  H  -2.10921  -10.65676  -7.04091
  H   0.33389  -13.60936  -6.81091
  H  -0.80221  -12.61046  -5.84091
  H  -1.31581  -13.66836  -7.24091
  H  -0.16121  -10.10766  -12.82091
  H  -0.56511  -11.61826  -12.21091
  H  -1.56181  -10.23446  -11.94091
  N  -0.08261  -10.56746  -9.43091
  N  -0.40261  -11.79596  -7.67091
  C  -10.77041  -0.91116  10.66909
  C  -11.47771  -1.57216  12.93909
  C  -10.27931  -2.92016  11.33909
  C  -9.74101  -2.76016  10.13909
  C  -9.80181  -0.69416   8.47909
  C  -12.39111  -0.39716  12.76909
  H  -11.21851   0.07084  10.64909
  H  -10.82221  -1.17816  13.70909
  H  -11.98661  -2.49516  13.20909
  H  -10.21571  -3.81416  11.93909
  H  -9.17481  -3.44716   9.52909
  H  -9.83501   0.38384   8.63909
  H  -8.80451  -1.04616   8.20909
  H  -10.40681  -0.96516   7.60909
  H  -13.05031  -0.58516  11.91909
  H  -11.90951   0.55884  12.55909
  H  -13.02501  -0.38516  13.65909
  N  -10.76781  -1.75916  11.71909
  N  -10.07481  -1.46016   9.75909
  C   2.32749  -12.83926   8.50909
  C   4.74719  -13.09006   8.22909
  C   3.52119  -11.13256   8.91909
  C   2.29979  -10.80696   9.29909
  C   0.19159  -12.09216   9.39909
  C   5.24679  -13.78846   9.44909
  H   2.13109  -13.88626   8.33909
  H   5.48669  -12.45036   7.73909
  H   4.55539  -13.83716   7.45909
  H   4.48339  -10.64986   9.00909
  H   1.81009  -10.01246   9.83909
  H  -0.32271  -12.70656   8.65909
  H   0.15349  -12.62256  10.34909
  H  -0.36931  -11.20206   9.67909
  H   4.77429  -14.69106   9.83909
  H   6.30179  -14.02726   9.31909
  H   5.08749  -13.09426  10.27909
  N   3.51429  -12.34246   8.42909
  N   1.57139  -11.93356   8.99909
  C  -12.59221  10.54504  -0.26091
  C  -11.13051   8.79064  -1.11091
  C  -10.75201  11.25424  -1.34091
  C  -11.43541  12.28354  -0.76091
  C  -13.14271  12.60264   0.97909
  C  -11.43801   8.04184  -2.39091
  H  -13.34271   9.87844   0.12909
  H  -11.69701   8.32374  -0.31091
  H  -10.08571   8.70944  -0.81091
  H  -9.94271  11.42054  -2.04091
  H  -11.21671  13.34024  -0.71091
  H  -12.84711  13.62384   1.21909
  H  -14.22641  12.55214   0.86909
  H  -12.94351  12.16174   1.95909
  H  -12.46081   8.24124  -2.71091
  H  -10.88031   8.39594  -3.25091
  H  -11.30521   6.96074  -2.34091
  N  -11.54631  10.20264  -1.08091
  N  -12.46401  11.86224  -0.03091
  C  10.03479   9.82634   7.60909
  C  10.64069   9.52504   5.32909
  C  12.23009   9.62644   7.43909
  C  11.89019   9.87614   8.69909
  C   9.71459   9.55704  10.11909
  C  11.14419  10.72674   4.51909
  H   9.00809   9.86814   7.26909
  H   9.56509   9.66644   5.22909
  H  10.76839   8.52434   4.91909
  H  13.24409   9.32654   7.22909
  H  12.62429  10.00414   9.48909
  H   8.67239   9.85634  10.00909
  H   9.88209   8.60464  10.62909
  H  10.11229  10.26374  10.84909
  H  10.79379  11.61844   5.03909
  H  12.21449  10.53154   4.44909
  H  10.79459  10.77184   3.47909
  N  11.00329   9.56994   6.74909
  N  10.48499   9.81034   8.82909
  C   8.97159  -11.90666  -5.75091
  C  10.72159  -13.60336  -5.37091
  C   9.58859  -11.91126  -3.68091
  C   8.54959  -11.03006  -3.92091
  C   7.16659  -10.26706  -5.91091
  C  10.92359  -14.94766  -4.60091
  H   8.97459  -12.22826  -6.78091
  H  10.34759  -13.90096  -6.35091
  H  11.66059  -13.14596  -5.68091
  H  10.10159  -12.33296  -2.83091
  H   8.16259  -10.26716  -3.26091
  H   7.62759  -9.69396  -6.71091
  H   6.44359  -10.97366  -6.32091
  H   6.68959  -9.68136  -5.12091
  H  11.97559  -15.22916  -4.54091
  H  10.63859  -14.82236  -3.55091
  H  10.49559  -15.82906  -5.07091
  N   9.80859  -12.46076  -4.91091
  N   8.20559  -11.05086  -5.18091
  C  -2.94091  -12.49856  -11.20091
  C  -4.69511  -10.78566  -11.73091
  C  -3.98021  -11.70196  -9.48091
  C  -3.23071  -12.67796  -9.03091
  C  -1.61071  -14.21856  -10.20091
  C  -4.20951  -10.86746  -13.15091
  H  -2.59491  -12.66996  -12.21091
  H  -5.75041  -11.02316  -11.59091
  H  -4.61951  -9.76246  -11.36091
  H  -4.63141  -11.05796  -8.91091
  H  -3.12241  -13.01376  -8.01091
  H  -1.49031  -14.60296  -11.21091
  H  -0.67251  -13.76906  -9.87091
  H  -1.87381  -15.11556  -9.63091
  H  -4.60781  -11.79116  -13.57091
  H  -4.75531  -10.06366  -13.64091
  H  -3.12591  -10.75486  -13.18091
  N  -3.91591  -11.68016  -10.87091
  N  -2.59831  -13.20336  -10.15091
  C  -10.09721  -10.95316   8.14909
  C  -12.17551  -11.24116   9.33909
  C  -11.70541  -11.89016   6.98909
  C  -10.70281  -11.55716   6.14909
  C  -8.35181  -10.53616   6.53909