created by fftool

1227 atoms
1028 bonds
1445 angles
675 dihedrals
32 atom types
33 bond types
52 angle types
78 dihedral types
0.000000 25.000000 xlo xhi
0.000000 25.000000 ylo yhi
0.000000 25.000000 zlo zhi

Masses

   1    1.008  # H00
   2   12.011  # C01
   3    1.008  # H02
   4    1.008  # H03
   5   15.999  # O04
   6    1.008  # H05
   7   12.011  # C00
   8   12.011  # C02
   9   12.011  # C03
  10   12.011  # C04
  11   12.011  # C05
  12    1.008  # H06
  13    1.008  # H07
  14   12.011  # C08
  15    1.008  # H09
  16    1.008  # H0A
  17   12.011  # C0B
  18   15.999  # O0C
  19   12.011  # C0D
  20   12.011  # C0E
  21    1.008  # H0F
  22   12.011  # C0G
  23    1.008  # H0H
  24   12.011  # C0I
  25    1.008  # H0J
  26   12.011  # C0K
  27    1.008  # H0M
  28   12.011  # C0N
  29    1.008  # H0O
  30    1.008  # H0P
  31    1.008  # H0Q
  32    1.008  # H0R

Bond Coeffs

   1   339.997610     1.090000  # C01-H00
   2   339.997610     1.090000  # H02-C01
   3   339.997610     1.090000  # H03-C01
   4   320.004780     1.410000  # O04-C01
   5   552.999522     0.945000  # H05-O04
   6   469.000956     1.400000  # C01-C00
   7   469.000956     1.400000  # C03-C00
   8   367.005258     1.080000  # H06-C00
   9   469.000956     1.400000  # C02-C01
  10   367.005258     1.080000  # H07-C01
  11   469.000956     1.400000  # C05-C02
  12   400.000000     1.490000  # C08-C02
  13   469.000956     1.400000  # C04-C03
  14   367.005258     1.080000  # H09-C03
  15   469.000956     1.400000  # C05-C04
  16   367.005258     1.080000  # H0A-C04
  17   317.005258     1.510000  # C0B-C05
  18   570.004780     1.229000  # O0C-C08
  19   400.000000     1.490000  # C0D-C08
  20   339.997610     1.090000  # H0P-C0B
  21   339.997610     1.090000  # H0Q-C0B
  22   339.997610     1.090000  # H0R-C0B
  23   469.000956     1.400000  # C0E-C0D
  24   469.000956     1.400000  # C0N-C0D
  25   367.005258     1.080000  # H0F-C0E
  26   469.000956     1.400000  # C0G-C0E
  27   367.005258     1.080000  # H0H-C0G
  28   469.000956     1.400000  # C0I-C0G
  29   367.005258     1.080000  # H0J-C0I
  30   469.000956     1.400000  # C0K-C0I
  31   367.005258     1.080000  # H0M-C0K
  32   469.000956     1.400000  # C0N-C0K
  33   367.005258     1.080000  # H0O-C0N

Angle Coeffs

   1    32.994742   107.800000  # H00-C01-H02
   2    32.994742   107.800000  # H00-C01-H03
   3    35.002390   109.500000  # H00-C01-O04
   4    32.994742   107.800000  # H02-C01-H03
   5    35.002390   109.500000  # H02-C01-O04
   6    35.002390   109.500000  # H03-C01-O04
   7    54.995220   108.500000  # C01-O04-H05
   8    63.001912   120.000000  # C01-C00-C03
   9    35.002390   120.000000  # C01-C00-H06
  10    35.002390   120.000000  # C03-C00-H06
  11    63.001912   120.000000  # C00-C01-C02
  12    35.002390   120.000000  # C00-C01-H07
  13    35.002390   120.000000  # C02-C01-H07
  14    63.001912   120.000000  # C01-C02-C05
  15    85.002390   120.000000  # C01-C02-C08
  16    85.002390   120.000000  # C05-C02-C08
  17    63.001912   120.000000  # C00-C03-C04
  18    35.002390   120.000000  # C00-C03-H09
  19    35.002390   120.000000  # C04-C03-H09
  20    63.001912   120.000000  # C03-C04-C05
  21    35.002390   120.000000  # C03-C04-H0A
  22    35.002390   120.000000  # C05-C04-H0A
  23    63.001912   120.000000  # C02-C05-C04
  24    70.004780   120.000000  # C02-C05-C0B
  25    70.004780   120.000000  # C04-C05-C0B
  26    79.995220   120.400000  # C02-C08-O0C
  27    85.002390   120.000000  # C02-C08-C0D
  28    79.995220   120.400000  # O0C-C08-C0D
  29    35.002390   109.500000  # C05-C0B-H0P
  30    35.002390   109.500000  # C05-C0B-H0Q
  31    35.002390   109.500000  # C05-C0B-H0R
  32    32.994742   107.800000  # H0P-C0B-H0Q
  33    32.994742   107.800000  # H0P-C0B-H0R
  34    32.994742   107.800000  # H0Q-C0B-H0R
  35    85.002390   120.000000  # C08-C0D-C0E
  36    85.002390   120.000000  # C08-C0D-C0N
  37    63.001912   120.000000  # C0E-C0D-C0N
  38    35.002390   120.000000  # C0D-C0E-H0F
  39    63.001912   120.000000  # C0D-C0E-C0G
  40    35.002390   120.000000  # H0F-C0E-C0G
  41    35.002390   120.000000  # C0E-C0G-H0H
  42    63.001912   120.000000  # C0E-C0G-C0I
  43    35.002390   120.000000  # H0H-C0G-C0I
  44    35.002390   120.000000  # C0G-C0I-H0J
  45    63.001912   120.000000  # C0G-C0I-C0K
  46    35.002390   120.000000  # H0J-C0I-C0K
  47    35.002390   120.000000  # C0I-C0K-H0M
  48    63.001912   120.000000  # C0I-C0K-C0N
  49    35.002390   120.000000  # H0M-C0K-C0N
  50    63.001912   120.000000  # C0D-C0N-C0K
  51    35.002390   120.000000  # C0D-C0N-H0O
  52    35.002390   120.000000  # C0K-C0N-H0O

Dihedral Coeffs

   1     0.527964     0.000000     0.704111     0.000000  # H05-O04-C01-H00
   2     0.527964     0.000000     0.704111     0.000000  # H05-O04-C01-H02
   3     0.527964     0.000000     0.704111     0.000000  # H05-O04-C01-H03
   4     0.000000     7.250000     0.000000     0.000000  # C03-C00-C01-C02
   5     0.000000     7.250000     0.000000     0.000000  # H07-C01-C00-C03
   6     0.000000     7.250000     0.000000     0.000000  # H06-C00-C01-C02
   7     0.000000     7.250000     0.000000     0.000000  # H07-C01-C00-H06
   8     0.000000     7.250000     0.000000     0.000000  # C04-C03-C00-C01
   9     0.000000     7.250000     0.000000     0.000000  # H09-C03-C00-C01
  10     0.000000     7.250000     0.000000     0.000000  # H06-C00-C03-C04
  11     0.000000     7.250000     0.000000     0.000000  # H09-C03-C00-H06
  12     0.000000     7.250000     0.000000     0.000000  # C05-C02-C01-C00
  13     0.000000     7.250000     0.000000     0.000000  # C08-C02-C01-C00
  14     0.000000     7.250000     0.000000     0.000000  # H07-C01-C02-C05
  15     0.000000     7.250000     0.000000     0.000000  # C08-C02-C01-H07
  16     0.000000     7.250000     0.000000     0.000000  # C04-C05-C02-C01
  17     0.000000     7.250000     0.000000     0.000000  # C0B-C05-C02-C01
  18     0.000000     7.250000     0.000000     0.000000  # C08-C02-C05-C04
  19     0.000000     7.250000     0.000000     0.000000  # C0B-C05-C02-C08
  20     0.000000     2.099904     0.000000     0.000000  # O0C-C08-C02-C01
  21     0.000000     0.200048     0.000000     0.000000  # C0D-C08-C02-C01
  22     0.000000     2.099904     0.000000     0.000000  # O0C-C08-C02-C05
  23     0.000000     0.200048     0.000000     0.000000  # C0D-C08-C02-C05
  24     0.000000     7.250000     0.000000     0.000000  # C05-C04-C03-C00
  25     0.000000     7.250000     0.000000     0.000000  # H0A-C04-C03-C00
  26     0.000000     7.250000     0.000000     0.000000  # H09-C03-C04-C05
  27     0.000000     7.250000     0.000000     0.000000  # H0A-C04-C03-H09
  28     0.000000     7.250000     0.000000     0.000000  # C03-C04-C05-C02
  29     0.000000     7.250000     0.000000     0.000000  # C0B-C05-C04-C03
  30     0.000000     7.250000     0.000000     0.000000  # H0A-C04-C05-C02
  31     0.000000     7.250000     0.000000     0.000000  # C0B-C05-C04-H0A
  32     0.000000     0.000000     0.000000     0.000000  # H0P-C0B-C05-C02
  33     0.000000     0.000000     0.000000     0.000000  # H0Q-C0B-C05-C02
  34     0.000000     0.000000     0.000000     0.000000  # H0R-C0B-C05-C02
  35     0.000000     0.000000     0.000000     0.000000  # H0P-C0B-C05-C04
  36     0.000000     0.000000     0.000000     0.000000  # H0Q-C0B-C05-C04
  37     0.000000     0.000000     0.000000     0.000000  # H0R-C0B-C05-C04
  38     0.000000     0.200048     0.000000     0.000000  # C0E-C0D-C08-C02
  39     0.000000     0.200048     0.000000     0.000000  # C0N-C0D-C08-C02
  40     0.000000     2.099904     0.000000     0.000000  # C0E-C0D-C08-O0C
  41     0.000000     2.099904     0.000000     0.000000  # C0N-C0D-C08-O0C
  42     0.000000     7.250000     0.000000     0.000000  # H0F-C0E-C0D-C08
  43     0.000000     7.250000     0.000000     0.000000  # C0G-C0E-C0D-C08
  44     0.000000     7.250000     0.000000     0.000000  # C0N-C0D-C0E-H0F
  45     0.000000     7.250000     0.000000     0.000000  # C0N-C0D-C0E-C0G
  46     0.000000     7.250000     0.000000     0.000000  # C0K-C0N-C0D-C08
  47     0.000000     7.250000     0.000000     0.000000  # H0O-C0N-C0D-C08
  48     0.000000     7.250000     0.000000     0.000000  # C0K-C0N-C0D-C0E
  49     0.000000     7.250000     0.000000     0.000000  # H0O-C0N-C0D-C0E
  50     0.000000     7.250000     0.000000     0.000000  # H0H-C0G-C0E-C0D
  51     0.000000     7.250000     0.000000     0.000000  # C0I-C0G-C0E-C0D
  52     0.000000     7.250000     0.000000     0.000000  # H0H-C0G-C0E-H0F
  53     0.000000     7.250000     0.000000     0.000000  # C0I-C0G-C0E-H0F
  54     0.000000     7.250000     0.000000     0.000000  # H0J-C0I-C0G-C0E
  55     0.000000     7.250000     0.000000     0.000000  # C0K-C0I-C0G-C0E
  56     0.000000     7.250000     0.000000     0.000000  # H0J-C0I-C0G-H0H
  57     0.000000     7.250000     0.000000     0.000000  # C0K-C0I-C0G-H0H
  58     0.000000     7.250000     0.000000     0.000000  # H0M-C0K-C0I-C0G
  59     0.000000     7.250000     0.000000     0.000000  # C0N-C0K-C0I-C0G
  60     0.000000     7.250000     0.000000     0.000000  # H0M-C0K-C0I-H0J
  61     0.000000     7.250000     0.000000     0.000000  # C0N-C0K-C0I-H0J
  62     0.000000     7.250000     0.000000     0.000000  # C0I-C0K-C0N-C0D
  63     0.000000     7.250000     0.000000     0.000000  # H0O-C0N-C0K-C0I
  64     0.000000     7.250000     0.000000     0.000000  # H0M-C0K-C0N-C0D
  65     0.000000     7.250000     0.000000     0.000000  # H0O-C0N-C0K-H0M
  66     0.000000     2.500000     0.000000     0.000000  # C01-C03-C00-H06
  67     0.000000     2.500000     0.000000     0.000000  # C00-C02-C01-H07
  68     0.000000     2.500000     0.000000     0.000000  # C01-C05-C02-C08
  69     0.000000     2.500000     0.000000     0.000000  # C00-C04-C03-H09
  70     0.000000     2.500000     0.000000     0.000000  # C03-C05-C04-H0A
  71     0.000000     2.500000     0.000000     0.000000  # C02-C04-C05-C0B
  72     0.000000    10.500000     0.000000     0.000000  # C02-O0C-C08-C0D
  73     0.000000     2.500000     0.000000     0.000000  # C08-C0E-C0D-C0N
  74     0.000000     2.500000     0.000000     0.000000  # C0D-H0F-C0E-C0G
  75     0.000000     2.500000     0.000000     0.000000  # C0E-H0H-C0G-C0I
  76     0.000000     2.500000     0.000000     0.000000  # C0G-H0J-C0I-C0K
  77     0.000000     2.500000     0.000000     0.000000  # H0M-C0N-C0K-C0I
  78     0.000000     2.500000     0.000000     0.000000  # C0D-C0K-C0N-H0O

Atoms

      1       1    1   0.0755  1.295925e+01  2.061321e+01  7.579740e+00  # H00 MeOH
      2       1    2  -0.0515  1.258277e+01  1.990519e+01  6.835555e+00  # C01 MeOH
      3       1    3   0.0755  1.166502e+01  1.943671e+01  7.211915e+00  # H02 MeOH
      4       1    4   0.0755  1.235623e+01  2.044062e+01  5.905639e+00  # H03 MeOH
      5       1    5  -0.5763  1.361701e+01  1.898251e+01  6.678599e+00  # O04 MeOH
      6       1    6   0.4013  1.333282e+01  1.834533e+01  6.036428e+00  # H05 MeOH
      7       2    1   0.0755  9.741915e+00  1.206561e+01  1.325708e+01  # H00 MeOH
      8       2    2  -0.0515  9.520887e+00  1.120457e+01  1.261944e+01  # C01 MeOH
      9       2    3   0.0755  8.812051e+00  1.150423e+01  1.183769e+01  # H02 MeOH
     10       2    4   0.0755  1.044677e+01  1.085355e+01  1.214798e+01  # H03 MeOH
     11       2    5  -0.5763  8.975772e+00  1.025909e+01  1.348808e+01  # O04 MeOH
     12       2    6   0.4013  8.768514e+00  9.489315e+00  1.297463e+01  # H05 MeOH
     13       3    1   0.0755  1.406790e+01  1.351806e+01  1.224761e+01  # H00 MeOH
     14       3    2  -0.0515  1.343258e+01  1.404202e+01  1.296781e+01  # C01 MeOH
     15       3    3   0.0755  1.315500e+01  1.502232e+01  1.256117e+01  # H02 MeOH
     16       3    4   0.0755  1.252217e+01  1.345638e+01  1.314369e+01  # H03 MeOH
     17       3    5  -0.5763  1.422212e+01  1.415278e+01  1.411234e+01  # O04 MeOH
     18       3    6   0.4013  1.370722e+01  1.460334e+01  1.476886e+01  # H05 MeOH
     19       4    1   0.0755  5.557565e+00  1.927131e+01  1.320849e+01  # H00 MeOH
     20       4    2  -0.0515  6.013550e+00  1.958758e+01  1.415130e+01  # C01 MeOH
     21       4    3   0.0755  6.459907e+00  1.871756e+01  1.464850e+01  # H02 MeOH
     22       4    4   0.0755  6.798981e+00  2.032506e+01  1.394641e+01  # H03 MeOH
     23       4    5  -0.5763  4.957062e+00  2.012697e+01  1.488513e+01  # O04 MeOH
     24       4    6   0.4013  5.309038e+00  2.041746e+01  1.571632e+01  # H05 MeOH
     25       5    1   0.0755  1.488377e+00  4.077715e+00  1.142930e+01  # H00 MeOH
     26       5    2  -0.0515  1.899605e+00  4.069028e+00  1.244303e+01  # C01 MeOH
     27       5    3   0.0755  1.492494e+00  3.211326e+00  1.299257e+01  # H02 MeOH
     28       5    4   0.0755  2.991213e+00  3.976455e+00  1.239224e+01  # H03 MeOH
     29       5    5  -0.5763  1.494840e+00  5.285204e+00  1.299320e+01  # O04 MeOH
     30       5    6   0.4013  1.832622e+00  5.321751e+00  1.387847e+01  # H05 MeOH
     31       6    1   0.0755  1.087788e+01  4.492968e+00  3.229810e+00  # H00 MeOH
     32       6    2  -0.0515  1.057604e+01  5.359743e+00  3.825151e+00  # C01 MeOH
     33       6    3   0.0755  9.575265e+00  5.683401e+00  3.513581e+00  # H02 MeOH
     34       6    4   0.0755  1.054845e+01  5.081233e+00  4.885541e+00  # H03 MeOH
     35       6    5  -0.5763  1.154753e+01  6.323308e+00  3.554299e+00  # O04 MeOH
     36       6    6   0.4013  1.132504e+01  7.097820e+00  4.054067e+00  # H05 MeOH
     37       7    1   0.0755  1.544379e+01  1.471773e+00  2.192084e+01  # H00 MeOH
     38       7    2  -0.0515  1.632069e+01  2.110242e+00  2.206312e+01  # C01 MeOH
     39       7    3   0.0755  1.723013e+01  1.503914e+00  2.197003e+01  # H02 MeOH
     40       7    4   0.0755  1.633079e+01  2.891566e+00  2.129358e+01  # H03 MeOH
     41       7    5  -0.5763  1.616661e+01  2.631909e+00  2.334754e+01  # O04 MeOH
     42       7    6   0.4013  1.690963e+01  3.196863e+00  2.351457e+01  # H05 MeOH
     43       8    1   0.0755  1.196094e+01  2.354683e+01  9.790178e+00  # H00 MeOH
     44       8    2  -0.0515  1.104368e+01  2.313744e+01  9.356741e+00  # C01 MeOH
     45       8    3   0.0755  1.018450e+01  2.345133e+01  9.962277e+00  # H02 MeOH
     46       8    4   0.0755  1.092127e+01  2.351959e+01  8.336089e+00  # H03 MeOH
     47       8    5  -0.5763  1.123088e+01  2.175555e+01  9.387469e+00  # O04 MeOH
     48       8    6   0.4013  1.045447e+01  2.135646e+01  9.017261e+00  # H05 MeOH
     49       9    1   0.0755  2.024181e+00  6.771556e+00  7.775829e+00  # H00 MeOH
     50       9    2  -0.0515  2.065590e+00  5.692721e+00  7.599090e+00  # C01 MeOH
     51       9    3   0.0755  1.494309e+00  5.450909e+00  6.694351e+00  # H02 MeOH
     52       9    4   0.0755  3.109098e+00  5.387072e+00  7.456165e+00  # H03 MeOH
     53       9    5  -0.5763  1.499587e+00  5.130647e+00  8.743346e+00  # O04 MeOH
     54       9    6   0.4013  1.515759e+00  4.188908e+00  8.633759e+00  # H05 MeOH
     55      10    1   0.0755  3.055097e+00  1.293256e+01  2.118391e+01  # H00 MeOH
     56      10    2  -0.0515  2.371833e+00  1.215287e+01  2.153330e+01  # C01 MeOH
     57      10    3   0.0755  1.477733e+00  1.214229e+01  2.089780e+01  # H02 MeOH
     58      10    4   0.0755  2.868929e+00  1.117745e+01  2.146844e+01  # H03 MeOH
     59      10    5  -0.5763  2.077038e+00  1.251224e+01  2.284842e+01  # O04 MeOH
     60      10    6   0.4013  1.483704e+00  1.185842e+01  2.319427e+01  # H05 MeOH
     61      11    1   0.0755  1.982284e+01  1.409244e+01  2.066917e+01  # H00 MeOH
     62      11    2  -0.0515  2.073853e+01  1.416756e+01  2.007529e+01  # C01 MeOH
     63      11    3   0.0755  2.145373e+01  1.340750e+01  2.041322e+01  # H02 MeOH
     64      11    4   0.0755  2.050250e+01  1.399263e+01  1.901868e+01  # H03 MeOH
     65      11    5  -0.5763  2.119957e+01  1.546311e+01  2.030898e+01  # O04 MeOH
     66      11    6   0.4013  2.199769e+01  1.557397e+01  1.980912e+01  # H05 MeOH
     67      12    1   0.0755  9.288330e+00  1.141445e+01  1.826697e+01  # H00 MeOH
     68      12    2  -0.0515  1.019124e+01  1.122953e+01  1.767757e+01  # C01 MeOH
     69      12    3   0.0755  1.105695e+01  1.166177e+01  1.819439e+01  # H02 MeOH
     70      12    4   0.0755  1.034104e+01  1.014838e+01  1.757062e+01  # H03 MeOH
     71      12    5  -0.5763  9.943254e+00  1.185472e+01  1.645559e+01  # O04 MeOH
     72      12    6   0.4013  1.070525e+01  1.171813e+01  1.590801e+01  # H05 MeOH
     73      13    1   0.0755  1.301242e+01  3.224459e+00  2.048866e+00  # H00 MeOH
     74      13    2  -0.0515  1.367545e+01  4.094487e+00  2.065474e+00  # C01 MeOH
     75      13    3   0.0755  1.395807e+01  4.315764e+00  3.102077e+00  # H02 MeOH
     76      13    4   0.0755  1.458050e+01  3.873516e+00  1.486843e+00  # H03 MeOH
     77      13    5  -0.5763  1.291896e+01  5.119426e+00  1.497290e+00  # O04 MeOH
     78      13    6   0.4013  1.345871e+01  5.899013e+00  1.490132e+00  # H05 MeOH
     79      14    1   0.0755  1.331846e+01  2.305065e+01  5.992799e+00  # H00 MeOH
     80      14    2  -0.0515  1.439270e+01  2.296120e+01  5.806193e+00  # C01 MeOH
     81      14    3   0.0755  1.494142e+01  2.353975e+01  6.559571e+00  # H02 MeOH
     82      14    4   0.0755  1.468823e+01  2.190754e+01  5.878552e+00  # H03 MeOH
     83      14    5  -0.5763  1.456657e+01  2.347441e+01  4.520896e+00  # O04 MeOH
     84      14    6   0.4013  1.549031e+01  2.341530e+01  4.315101e+00  # H05 MeOH
     85      15    1   0.0755  1.476519e+01  1.711083e+01  2.117003e+01  # H00 MeOH
     86      15    2  -0.0515  1.466949e+01  1.703638e+01  2.225729e+01  # C01 MeOH
     87      15    3   0.0755  1.448142e+01  1.599177e+01  2.253445e+01  # H02 MeOH
     88      15    4   0.0755  1.560208e+01  1.736962e+01  2.272845e+01  # H03 MeOH
     89      15    5  -0.5763  1.359143e+01  1.786465e+01  2.256928e+01  # O04 MeOH
     90      15    6   0.4013  1.347185e+01  1.783154e+01  2.350935e+01  # H05 MeOH
     91      16    1   0.0755  6.660539e+00  2.295297e+01  4.119742e+00  # H00 MeOH
     92      16    2  -0.0515  6.549064e+00  2.290867e+01  5.207146e+00  # C01 MeOH
     93      16    3   0.0755  5.635255e+00  2.344008e+01  5.500318e+00  # H02 MeOH
     94      16    4   0.0755  6.471164e+00  2.186124e+01  5.522694e+00  # H03 MeOH
     95      16    5  -0.5763  7.697613e+00  2.352780e+01  5.700224e+00  # O04 MeOH
     96      16    6   0.4013  7.643979e+00  2.351108e+01  6.646790e+00  # H05 MeOH
     97      17    1   0.0755  9.382709e+00  2.350403e+01  1.961997e+01  # H00 MeOH
     98      17    2  -0.0515  1.025226e+01  2.297912e+01  1.921353e+01  # C01 MeOH
     99      17    3   0.0755  1.027735e+01  2.310749e+01  1.812437e+01  # H02 MeOH
    100      17    4   0.0755  1.116737e+01  2.340217e+01  1.964523e+01  # H03 MeOH
    101      17    5  -0.5763  1.005806e+01  2.164762e+01  1.958097e+01  # O04 MeOH
    102      17    6   0.4013  1.079451e+01  2.115180e+01  1.924788e+01  # H05 MeOH
    103      18    1   0.0755  1.839032e+01  1.901034e+01  5.089218e+00  # H00 MeOH
    104      18    2  -0.0515  1.834807e+01  1.985116e+01  4.390606e+00  # C01 MeOH
    105      18    3   0.0755  1.772270e+01  1.957834e+01  3.531618e+00  # H02 MeOH
    106      18    4   0.0755  1.790676e+01  2.072025e+01  4.893288e+00  # H03 MeOH
    107      18    5  -0.5763  1.967678e+01  2.006711e+01  4.025214e+00  # O04 MeOH
    108      18    6   0.4013  1.968832e+01  2.079384e+01  3.416226e+00  # H05 MeOH
    109      19    1   0.0755  8.855498e+00  1.043850e+01  5.388987e+00  # H00 MeOH
    110      19    2  -0.0515  8.475401e+00  9.517399e+00  5.840582e+00  # C01 MeOH
    111      19    3   0.0755  8.412292e+00  9.645553e+00  6.928231e+00  # H02 MeOH
    112      19    4   0.0755  7.474345e+00  9.304851e+00  5.446289e+00  # H03 MeOH
    113      19    5  -0.5763  9.406124e+00  8.543128e+00  5.479806e+00  # O04 MeOH
    114      19    6   0.4013  9.114097e+00  7.721223e+00  5.851740e+00  # H05 MeOH
    115      20    1   0.0755  6.699098e+00  1.795586e+00  1.167923e+01  # H00 MeOH
    116      20    2  -0.0515  7.687582e+00  2.264340e+00  1.168143e+01  # C01 MeOH
    117      20    3   0.0755  7.797300e+00  2.875914e+00  1.258549e+01  # H02 MeOH
    118      20    4   0.0755  8.459753e+00  1.485555e+00  1.167993e+01  # H03 MeOH
    119      20    5  -0.5763  7.709386e+00  3.035991e+00  1.051967e+01  # O04 MeOH
    120      20    6   0.4013  8.555010e+00  3.463126e+00  1.047944e+01  # H05 MeOH
    121      21    1   0.0755  2.355014e+01  1.396209e+01  1.593024e+01  # H00 MeOH
    122      21    2  -0.0515  2.299848e+01  1.389324e+01  1.687246e+01  # C01 MeOH
    123      21    3   0.0755  2.325603e+01  1.474998e+01  1.750733e+01  # H02 MeOH
    124      21    4   0.0755  2.192156e+01  1.391143e+01  1.666590e+01  # H03 MeOH
    125      21    5  -0.5763  2.341185e+01  1.268340e+01  1.743015e+01  # O04 MeOH
    126      21    6   0.4013  2.295452e+01  1.258080e+01  1.825444e+01  # H05 MeOH
    127      22    1   0.0755  2.009769e+01  1.172147e+01  1.638019e+01  # H00 MeOH
    128      22    2  -0.0515  1.917531e+01  1.230972e+01  1.637618e+01  # C01 MeOH
    129      22    3   0.0755  1.885238e+01  1.248549e+01  1.740972e+01  # H02 MeOH
    130      22    4   0.0755  1.936129e+01  1.327499e+01  1.588997e+01  # H03 MeOH
    131      22    5  -0.5763  1.826520e+01  1.152502e+01  1.566797e+01  # O04 MeOH
    132      22    6   0.4013  1.744504e+01  1.199998e+01  1.563825e+01  # H05 MeOH
    133      23    1   0.0755  2.478733e+00  1.929233e+01  3.189007e+00  # H00 MeOH
    134      23    2  -0.0515  3.544967e+00  1.913538e+01  3.377020e+00  # C01 MeOH
    135      23    3   0.0755  3.667120e+00  1.846154e+01  4.233995e+00  # H02 MeOH
    136      23    4   0.0755  4.007003e+00  1.867859e+01  2.493493e+00  # H03 MeOH
    137      23    5  -0.5763  4.043996e+00  2.041164e+01  3.637291e+00  # O04 MeOH
    138      23    6   0.4013  4.972893e+00  2.032334e+01  3.806095e+00  # H05 MeOH
    139      24    1   0.0755  1.058485e+01  1.551036e+01  2.128176e+01  # H00 MeOH
    140      24    2  -0.0515  1.162899e+01  1.542644e+01  2.159728e+01  # C01 MeOH
    141      24    3   0.0755  1.226304e+01  1.600041e+01  2.091030e+01  # H02 MeOH
    142      24    4   0.0755  1.173722e+01  1.583404e+01  2.260966e+01  # H03 MeOH
    143      24    5  -0.5763  1.189998e+01  1.405922e+01  2.154351e+01  # O04 MeOH
    144      24    6   0.4013  1.280130e+01  1.393855e+01  2.181221e+01  # H05 MeOH
    145      25    1   0.0755  3.483761e+00  1.472125e+01  1.897761e+01  # H00 MeOH
    146      25    2  -0.0515  2.860777e+00  1.429260e+01  1.818705e+01  # C01 MeOH
    147      25    3   0.0755  3.499626e+00  1.397340e+01  1.735436e+01  # H02 MeOH
    148      25    4   0.0755  2.322488e+00  1.342155e+01  1.857983e+01  # H03 MeOH
    149      25    5  -0.5763  2.000565e+00  1.532811e+01  1.782187e+01  # O04 MeOH
    150      25    6   0.4013  1.436871e+00  1.499859e+01  1.713426e+01  # H05 MeOH
    151      26    1   0.0755  2.226209e+01  1.822949e+01  1.859531e+01  # H00 MeOH
    152      26    2  -0.0515  2.287114e+01  1.899922e+01  1.811219e+01  # C01 MeOH
    153      26    3   0.0755  2.350967e+01  1.948107e+01  1.886285e+01  # H02 MeOH
    154      26    4   0.0755  2.350534e+01  1.853476e+01  1.734745e+01  # H03 MeOH
    155      26    5  -0.5763  2.194284e+01  1.988535e+01  1.756570e+01  # O04 MeOH
    156      26    6   0.4013  2.242994e+01  2.057397e+01  1.713248e+01  # H05 MeOH
    157      27    1   0.0755  1.345551e+01  2.335807e+01  1.237222e+01  # H00 MeOH
    158      27    2  -0.0515  1.260645e+01  2.305060e+01  1.298978e+01  # C01 MeOH
    159      27    3   0.0755  1.269378e+01  2.351050e+01  1.398188e+01  # H02 MeOH
    160      27    4   0.0755  1.167412e+01  2.338658e+01  1.252006e+01  # H03 MeOH
    161      27    5  -0.5763  1.270202e+01  2.166014e+01  1.304536e+01  # O04 MeOH
    162      27    6   0.4013  1.197947e+01  2.134768e+01  1.357397e+01  # H05 MeOH
    163      28    1   0.0755  8.960156e+00  1.412113e+01  1.955204e+01  # H00 MeOH
    164      28    2  -0.0515  7.957950e+00  1.452760e+01  1.971695e+01  # C01 MeOH
    165      28    3   0.0755  7.861349e+00  1.548218e+01  1.918512e+01  # H02 MeOH
    166      28    4   0.0755  7.211443e+00  1.382418e+01  1.932877e+01  # H03 MeOH
    167      28    5  -0.5763  7.869824e+00  1.468582e+01  2.109999e+01  # O04 MeOH
    168      28    6   0.4013  7.010115e+00  1.503766e+01  2.129040e+01  # H05 MeOH
    169      29    1   0.0755  2.352046e+01  1.910557e+01  6.084277e+00  # H00 MeOH
    170      29    2  -0.0515  2.307787e+01  1.989472e+01  5.469302e+00  # C01 MeOH
    171      29    3   0.0755  2.342159e+01  1.978352e+01  4.433500e+00  # H02 MeOH
    172      29    4   0.0755  2.198502e+01  1.980677e+01  5.495434e+00  # H03 MeOH
    173      29    5  -0.5763  2.352913e+01  2.108103e+01  6.047775e+00  # O04 MeOH
    174      29    6   0.4013  2.316626e+01  2.179759e+01  5.543787e+00  # H05 MeOH
    175      30    1   0.0755  5.338949e+00  1.575855e+01  1.142359e+01  # H00 MeOH
    176      30    2  -0.0515  4.968936e+00  1.674701e+01  1.113572e+01  # C01 MeOH
    177      30    3   0.0755  4.339247e+00  1.714725e+01  1.193989e+01  # H02 MeOH
    178      30    4   0.0755  5.818797e+00  1.742172e+01  1.097678e+01  # H03 MeOH
    179      30    5  -0.5763  4.244818e+00  1.652025e+01  9.965320e+00  # O04 MeOH
    180      30    6   0.4013  3.903789e+00  1.735672e+01  9.676947e+00  # H05 MeOH
    181      31    1   0.0755  1.350938e+01  7.783879e+00  8.102746e+00  # H00 MeOH
    182      31    2  -0.0515  1.373046e+01  7.337335e+00  7.128808e+00  # C01 MeOH
    183      31    3   0.0755  1.375540e+01  8.124927e+00  6.365614e+00  # H02 MeOH
    184      31    4   0.0755  1.470981e+01  6.845282e+00  7.167851e+00  # H03 MeOH
    185      31    5  -0.5763  1.268993e+01  6.433039e+00  6.916319e+00  # O04 MeOH
    186      31    6   0.4013  1.284220e+01  6.018429e+00  6.077240e+00  # H05 MeOH
    187      32    1   0.0755  1.321877e+01  2.027048e+01  1.057308e+01  # H00 MeOH
    188      32    2  -0.0515  1.285033e+01  1.924043e+01  1.058177e+01  # C01 MeOH
    189      32    3   0.0755  1.197030e+01  1.916419e+01  9.931281e+00  # H02 MeOH
    190      32    4   0.0755  1.363301e+01  1.857070e+01  1.020542e+01  # H03 MeOH
    191      32    5  -0.5763  1.253804e+01  1.899380e+01  1.191865e+01  # O04 MeOH
    192      32    6   0.4013  1.221319e+01  1.810467e+01  1.197403e+01  # H05 MeOH
    193      33    1   0.0755  3.017533e+00  5.218137e+00  1.746412e+01  # H00 MeOH
    194      33    2  -0.0515  2.037024e+00  4.867110e+00  1.712913e+01  # C01 MeOH
    195      33    3   0.0755  1.463328e+00  4.512598e+00  1.799434e+01  # H02 MeOH
    196      33    4   0.0755  1.496108e+00  5.695386e+00  1.665572e+01  # H03 MeOH
    197      33    5  -0.5763  2.323604e+00  3.838309e+00  1.623189e+01  # O04 MeOH
    198      33    6   0.4013  1.496262e+00  3.502418e+00  1.591279e+01  # H05 MeOH
    199      34    1   0.0755  1.623925e+01  1.797560e+00  6.104201e+00  # H00 MeOH
    200      34    2  -0.0515  1.521118e+01  2.033536e+00  5.813972e+00  # C01 MeOH
    201      34    3   0.0755  1.505404e+01  1.744655e+00  4.767434e+00  # H02 MeOH
    202      34    4   0.0755  1.451560e+01  1.471650e+00  6.448962e+00  # H03 MeOH
    203      34    5  -0.5763  1.510475e+01  3.411840e+00  5.999871e+00  # O04 MeOH
    204      34    6   0.4013  1.422237e+01  3.662524e+00  5.759661e+00  # H05 MeOH
    205      35    1   0.0755  3.269860e+00  1.205452e+01  1.361444e+01  # H00 MeOH
    206      35    2  -0.0515  2.344660e+00  1.174719e+01  1.411082e+01  # C01 MeOH
    207      35    3   0.0755  1.495293e+00  1.193052e+01  1.344123e+01  # H02 MeOH
    208      35    4   0.0755  2.393955e+00  1.067624e+01  1.434187e+01  # H03 MeOH
    209      35    5  -0.5763  2.287435e+00  1.253620e+01  1.525964e+01  # O04 MeOH
    210      35    6   0.4013  1.495604e+00  1.230107e+01  1.572532e+01  # H05 MeOH
    211      36    1   0.0755  1.513641e+00  4.256778e+00  2.123878e+01  # H00 MeOH
    212      36    2  -0.0515  1.867398e+00  4.124443e+00  2.226552e+01  # C01 MeOH
    213      36    3   0.0755  1.489893e+00  4.944955e+00  2.288812e+01  # H02 MeOH
    214      36    4   0.0755  1.491239e+00  3.172926e+00  2.266033e+01  # H03 MeOH
    215      36    5  -0.5763  3.258095e+00  4.142729e+00  2.215951e+01  # O04 MeOH
    216      36    6   0.4013  3.610013e+00  4.029202e+00  2.303267e+01  # H05 MeOH
    217      37    1   0.0755  9.159115e+00  7.173125e+00  1.879944e+01  # H00 MeOH
    218      37    2  -0.0515  1.025135e+01  7.190261e+00  1.885917e+01  # C01 MeOH
    219      37    3   0.0755  1.067026e+01  7.197860e+00  1.784534e+01  # H02 MeOH
    220      37    4   0.0755  1.057289e+01  8.096584e+00  1.938638e+01  # H03 MeOH
    221      37    5  -0.5763  1.058015e+01  6.026604e+00  1.955444e+01  # O04 MeOH
    222      37    6   0.4013  1.152489e+01  6.000216e+00  1.963130e+01  # H05 MeOH
    223      38    1   0.0755  1.192868e+01  1.803605e+01  1.909267e+01  # H00 MeOH
    224      38    2  -0.0515  1.276126e+01  1.869199e+01  1.882179e+01  # C01 MeOH
    225      38    3   0.0755  1.252261e+01  1.921436e+01  1.788714e+01  # H02 MeOH
    226      38    4   0.0755  1.291510e+01  1.943198e+01  1.961647e+01  # H03 MeOH
    227      38    5  -0.5763  1.384993e+01  1.783171e+01  1.867928e+01  # O04 MeOH
    228      38    6   0.4013  1.460034e+01  1.836144e+01  1.844389e+01  # H05 MeOH
    229      39    1   0.0755  1.658634e+01  1.301734e+01  1.323213e+01  # H00 MeOH
    230      39    2  -0.0515  1.727103e+01  1.382084e+01  1.294502e+01  # C01 MeOH