LAMMPS data file Created by LigParGen - (Written by Leela S. Dodda)

       6 atoms
       5 bonds
       7 angles
       3 dihedrals
       2 impropers
 
       6 atom types
       5 bond types
       7 angle types
       3 dihedral types
       2 improper types
 
   -1.388730    48.611270 xlo xhi
   -0.209180    49.790820 ylo yhi
   -0.703680    49.296320 zlo zhi

Masses

       1      1.008  
       2     12.011  
       3      1.008  
       4      1.008  
       5     15.999  
       6      1.008  

Pair Coeffs 

       1      0.030  2.5000000 
       2      0.066  3.5000000 
       3      0.030  2.5000000 
       4      0.030  2.5000000 
       5      0.170  3.1200000 
       6      0.000  0.0000000 

Bond Coeffs 

       1   340.0000     1.0900 
       2   340.0000     1.0900 
       3   340.0000     1.0900 
       4   320.0000     1.4100 
       5   553.0000     0.9450 

Angle Coeffs 

       1     33.000    107.800
       2     33.000    107.800
       3     35.000    109.500
       4     55.000    108.500
       5     33.000    107.800
       6     35.000    109.500
       7     35.000    109.500

Dihedral Coeffs  

       1      0.000      0.000      0.352      0.000 
       2      0.000      0.000      0.352      0.000 
       3      0.000      0.000      0.352      0.000 

Improper Coeffs 

       1      0.000      -1       2 
       2      0.000      -1       2 

Atoms 

     1      1      1 0.07550000    1.000  1.00000  0.00000
     2      1      2 -0.05150000   -0.094  1.00000  0.00000
     3      1      3 0.07550000   -0.457  1.00000  1.03519
     4      1      4 0.07550000   -0.458  1.90167 -0.50720
     5      1      5 -0.57630000   -0.442 -0.16800 -0.67844
     6      1      6 0.40120000   -1.389 -0.20918 -0.70368

Bonds 

     1      1      2      1
     2      2      3      2
     3      3      4      2
     4      4      5      2
     5      5      6      5

Angles 

     1      1      1      2      3
     2      2      1      2      4
     3      3      1      2      5
     4      4      2      5      6
     5      5      3      2      4
     6      6      3      2      5
     7      7      4      2      5

Dihedrals

     1      1      6      5      2      1 
     2      2      6      5      2      3 
     3      3      6      5      2      4 

Impropers

     1      1      2      1      3      4 
     2      2      2      1      3      5 

