  1075
# Step 96, RM=C8H15N2[6] (25 atoms), C8H15N2[10] d=510.449pm (25 atoms), C8H15N2[28] d=631.024pm (25 atoms), C8H15N2[39] d=705.494pm (25 atoms), C8H15N2[36] d=706.850pm (25 atoms), C8H15N2[38] d=718.103pm (25 atoms), C8H15N2[9] d=878.061pm (25 atoms), C8H15N2[12] d=883.696pm (25 atoms), C8H15N2[40] d=894.764pm (25 atoms), C8H15N2[11] d=910.414pm (25 atoms), C8H15N2[18] d=940.783pm (25 atoms), C8H15N2[31] d=1000.499pm (25 atoms), C8H15N2[1] d=1015.785pm (25 atoms), C8H15N2[15] d=1061.685pm (25 atoms), C8H15N2[26] d=1062.803pm (25 atoms), C8H15N2[41] d=1087.946pm (25 atoms), C8H15N2[7] d=1093.269pm (25 atoms), C8H15N2[35] d=1161.838pm (25 atoms), C8H15N2[24] d=1177.411pm (25 atoms), C8H15N2[3] d=1182.460pm (25 atoms), C8H15N2[13] d=1190.124pm (25 atoms), C8H15N2[27] d=1191.423pm (25 atoms), C8H15N2[2] d=1197.250pm (25 atoms), C8H15N2[25] d=1239.217pm (25 atoms), C8H15N2[17] d=1254.517pm (25 atoms), C8H15N2[23] d=1274.747pm (25 atoms), C8H15N2[29] d=1290.181pm (25 atoms), C8H15N2[34] d=1291.436pm (25 atoms), C8H15N2[37] d=1326.620pm (25 atoms), C8H15N2[16] d=1348.786pm (25 atoms), C8H15N2[4] d=1364.781pm (25 atoms), C8H15N2[8] d=1487.225pm (25 atoms), C8H15N2[5] d=1501.577pm (25 atoms), C8H15N2[22] d=1506.715pm (25 atoms), C8H15N2[32] d=1532.406pm (25 atoms), C8H15N2[21] d=1536.026pm (25 atoms), C8H15N2[19] d=1570.244pm (25 atoms), C8H15N2[33] d=1605.554pm (25 atoms), C8H15N2[20] d=1618.712pm (25 atoms), C8H15N2[30] d=1631.698pm (25 atoms), C8H15N2[42] d=1675.455pm (25 atoms), C8H15N2[43] d=1791.003pm (25 atoms), C8H15N2[14] d=2038.882pm (25 atoms)
  C   0.82216  -0.58597  -0.93795
  C  -0.52983   1.43973  -0.67795
  C   0.44527  -1.90317  -0.19795
  C   0.42815   0.97753   1.17205
  C  -0.30045   2.09223   1.42205
  C   1.23788  -3.12807  -0.71795
  C  -2.17563   3.13923   0.04205
  C   0.87909  -4.45197  -0.00795
  H  -0.80153   1.30323  -1.70795
  H   0.39922  -0.55617  -1.94795
  H   1.89555  -0.53407  -1.11795
  H   1.13160   0.53433   1.86205
  H  -0.45699   2.78483   2.23205
  H   0.70898  -1.59537   0.82205
  H  -0.62874  -2.02197  -0.33795
  H   0.96570  -3.06187  -1.76795
  H   2.31172  -2.94677  -0.66795
  H  -2.06068   4.22123  -0.01795
  H  -2.79146   3.06533   0.94205
  H  -2.86630   2.81733  -0.73795
  H   1.09384  -4.53807   1.06205
  H  -0.17555  -4.61737  -0.22795
  H   1.53696  -5.21117  -0.42795
  N   0.29502   0.57793  -0.16795
  N  -1.00561   2.24283   0.23205
  C   4.22984  -3.60297   3.28205
  C   4.10554  -6.11207   3.44205
  C   3.69544  -2.93267   1.96205
  C   2.25464  -5.08477   3.64205
  C   1.98364  -6.38717   3.84205
  C   4.28534  -1.52557   1.86205
  C   3.25584  -8.45997   3.75205
  C   3.96494  -0.70937   0.65205
  H   5.11304  -6.41547   3.20205
  H   5.30634  -3.69287   3.14205
  H   3.98154  -3.04197   4.18205
  H   1.61074  -4.25007   3.87205
  H   1.17574  -6.99837   4.22205
  H   3.85174  -3.54837   1.08205
  H   2.62804  -2.72427   1.89205
  H   5.37424  -1.54627   1.81205
  H   4.06734  -1.11177   2.84205
  H   2.82634  -8.94987   4.62205
  H   2.48964  -8.63807   2.99205
  H   4.16144  -8.98517   3.44205
  H   2.87764  -0.63667   0.67205
  H   4.28624   0.31923   0.81205
  H   4.29614  -1.23907  -0.24795
  N   3.61364  -4.86667   3.45205
  N   3.19884  -6.98977   3.82205
  C   1.99164  -5.45875  -7.79795
  C   0.66914  -6.55409  -6.07795
  C   3.46144  -5.41303  -8.10795
  C   2.36584  -5.53217  -5.28795
  C   1.88834  -6.25747  -4.30795
  C   3.76804  -5.13668  -9.56795
  C   0.13364  -8.12304  -4.28795
  C   3.77414  -6.22264  -10.59795
  H   0.00834  -6.99841  -6.80795
  H   1.66294  -4.41952  -7.79795
  H   1.53174  -5.83336  -8.70795
  H   3.32784  -5.04217  -5.25795
  H   2.22514  -6.57400  -3.32795
  H   4.00104  -6.33231  -7.87795
  H   3.92164  -4.65914  -7.46795
  H   4.81364  -4.86383  -9.42795
  H   3.17634  -4.27089  -9.86795
  H   0.72004  -9.01418  -4.51795
  H  -0.83936  -8.18331  -4.77795
  H  -0.18366  -8.00758  -3.25795
  H   2.80694  -6.72543  -10.59795
  H   4.51854  -6.99974  -10.42795
  H   3.98024  -5.71467  -11.53795
  N   1.57204  -5.75002  -6.44795
  N   0.86284  -6.96812  -4.88795
  C  -0.54896  -2.11327   5.33205
  C  -0.09876  -0.04627   6.71205
  C  -1.50186  -2.47447   4.19205
  C  -0.97206   0.32033   4.81205
  C  -0.84196   1.50633   5.42205
  C  -1.75296  -3.95780   4.20205
  C  -0.37326   2.21923   7.81205
  C  -2.34566  -4.50497   2.88205
  H   0.17254  -0.63797   7.57205
  H  -0.85746  -2.71637   6.18205
  H   0.45074  -2.49927   5.13205
  H  -1.40606   0.19913   3.83205
  H  -1.10216   2.50873   5.11205
  H  -1.05906  -2.07117   3.28205
  H  -2.43726  -1.96937   4.44205
  H  -0.77476  -4.37523   4.44205
  H  -2.47256  -4.21139   4.98205
  H   0.48524   2.88403   7.72205
  H  -1.27956   2.82053   7.74205
  H  -0.34116   1.67943   8.76205
  H  -1.95006  -4.11998   1.94205
  H  -2.43176  -5.59067   2.84205
  H  -3.35396  -4.09496   2.94205
  N  -0.48846  -0.63507   5.65205
  N  -0.42586   1.22243   6.71205
  C  -4.15826  -2.33887  -6.48795
  C  -5.32426  -2.41187  -4.24795
  C  -2.72726  -2.00187  -6.94795
  C  -3.31526  -1.54287  -4.10795
  C  -3.78126  -1.64687  -2.90795
  C  -2.64326  -0.41587  -6.98795
  C  -6.10026  -2.30587  -1.96795
  C  -1.16926  -0.06987  -7.41795
  H  -6.15326  -3.02187  -4.57795
  H  -4.26326  -3.40887  -6.66795
  H  -4.83326  -1.82487  -7.16795
  H  -2.29826  -1.26987  -4.35795
  H  -3.36626  -1.42887  -1.92795
  H  -2.70626  -2.67087  -7.80795
  H  -1.96026  -2.46287  -6.31795
  H  -2.89226   0.10313  -6.06795
  H  -3.22926  -0.00387  -7.81795
  H  -5.94426  -3.34187  -1.66795
  H  -5.96726  -1.78487  -1.01795
  H  -7.16126  -2.27287  -2.20795
  H  -0.49026  -0.01487  -6.56795
  H  -0.93226   0.78713  -8.04795
  H  -0.74326  -0.82387  -8.07795
  N  -4.26826  -2.05287  -5.01795
  N  -5.09126  -2.01187  -3.06795
  C   7.01144  -2.46287  -6.34795
  C   7.56284  -1.85887  -3.95795
  C   5.68724  -2.60087  -7.11795
  C   6.25724  -3.50987  -4.25795
  C   6.23524  -3.10187  -2.95795
  C   5.74274  -1.79587  -8.45795
  C   7.66254  -1.67487  -1.47795
  C   4.28864  -1.35587  -8.70795
  H   8.29564  -1.08687  -4.13795
  H   7.71234  -3.17587  -6.78795
  H   7.37504  -1.43887  -6.43795
  H   5.66434  -4.23287  -4.79795
  H   5.67974  -3.55687  -2.14795
  H   5.51374  -3.65787  -7.31795
  H   4.84574  -2.35287  -6.46795
  H   6.07274  -2.44787  -9.26795
  H   6.41064  -0.93587  -8.40795
  H   8.72624  -1.46887  -1.59795
  H   7.39104  -2.21887  -0.57795
  H   7.17014  -0.70787  -1.37795
  H   3.47494  -2.07987  -8.74795
  H   4.10914  -0.53687  -8.00795
  H   4.28384  -0.93087  -9.70795
  N   7.06434  -2.64787  -4.88795
  N   7.22244  -2.22787  -2.74795
  C   8.16844  -8.90787   1.08205
  C   6.92704  -8.45587  -1.00795
  C   7.26514  -9.88087   1.81205
  C   9.09954  -8.32187  -1.19795
  C   8.58724  -8.00487  -2.39795
  C   6.94364  -11.22287   1.19205
  C   6.19194  -7.70087  -3.14795
  C   5.56314  -11.77787   1.68205
  H   5.95914  -8.31487  -0.54795
  H   8.08134  -7.95587   1.61205
  H   9.23514  -9.08287   1.22205
  H  10.13204  -8.45387  -0.90795
  H   9.06014  -7.75287  -3.33795
  H   7.50914  -10.04787   2.86205
  H   6.29024  -9.40587   1.92205
  H   7.07614  -11.01387   0.13205
  H   7.68214  -11.98487   1.44205
  H   6.11954  -6.62087  -3.02795
  H   6.43914  -7.98387  -4.17795
  H   5.30564  -8.28587  -2.90795
  H   5.30594  -11.36987   2.65205
  H   5.38504  -12.85187   1.62205
  H   4.77764  -11.27087   1.12205
  N   8.04054  -8.66887  -0.36795
  N   7.22304  -8.01087  -2.17795
  C  -3.48626  -9.85607  -0.72795
  C  -1.34726  -11.08947  -0.08795
  C  -2.94226  -8.46707  -0.60795
  C  -3.07326  -12.30957  -0.62795
  C  -2.14326  -13.18517  -0.32795
  C  -2.62226  -8.13647   0.85205
  C   0.34374  -12.94967   0.05205
  C  -1.29126  -7.34937   0.93205
  H  -0.68426  -10.32207   0.28205
  H  -3.83726  -10.02017  -1.74795
  H  -4.40526  -9.88437  -0.14795
  H  -4.09426  -12.43347  -0.95795
  H  -2.25426  -14.25887  -0.35795
  H  -1.95426  -8.45917  -1.06795
  H  -3.73526  -7.81567  -0.97795
  H  -3.44926  -7.60017   1.31205
  H  -2.34226  -9.00237   1.45205
  H   1.09474  -12.46517  -0.56795
  H   0.29474  -13.99987  -0.23795
  H   0.60574  -12.94177   1.11205
  H  -1.08926  -7.18217   1.99205
  H  -1.52426  -6.41317   0.42205
  H  -0.44826  -7.80437   0.41205
  N  -2.65426  -11.05357  -0.35795
  N  -1.01326  -12.41027  -0.10795
  C   2.61744   4.45993   0.85205
  C   2.18564   5.58143   2.97205
  C   1.52724   4.94863  -0.06795
  C   4.20684   4.94733   2.57205
  C   4.16774   5.44963   3.77205
  C   1.46164   4.19853  -1.43795
  C   2.46114   6.11363   5.40205
  C   0.51904   4.50373  -2.53795
  H   1.10734   5.63483   2.94205
  H   2.30464   3.48993   1.24205
  H   3.51754   4.26723   0.27205
  H   4.95034   4.50033   1.92205
  H   4.97454   5.46223   4.49205
  H   0.52124   4.98653   0.35205
  H   1.80064   6.00073  -0.14795
  H   2.48464   4.10323  -1.79795
  H   1.14094   3.20093  -1.13795
  H   1.64084   5.43273   5.63205
  H   2.08724   7.13173   5.51205
  H   3.26064   5.76793   6.06205
  H  -0.51896   4.53073  -2.20795
  H   0.62474   5.43983  -3.08795
  H   0.66294   3.70403  -3.26795
  N   2.98654   5.21483   2.00205
  N   2.91484   5.83883   4.02205
  C  -8.32326  -6.36877   1.41205
  C  -7.63126  -3.89527   1.79205
  C  -9.68526  -6.29347   1.99205
  C  -5.99026  -5.12877   1.45205
  C  -5.53626  -3.88197   1.62205
  C  -9.57926  -6.01817   3.51205
  C  -6.59826  -1.95457   2.95205
  C  -9.22326  -7.30427   4.38205
  H  -8.60226  -3.46537   1.98205
  H  -7.76826  -7.24247   1.75205
  H  -8.29026  -6.46277   0.32205
  H  -5.38026  -5.96707   1.15205
  H  -4.52846  -3.49867   1.68205
  H  -10.19226  -5.39747   1.63205
  H  -10.35526  -7.11057   1.72205
  H  -10.43226  -5.55937   4.01205
  H  -8.92926  -5.14517   3.56205
  H  -7.42426  -1.97687   3.66205
  H  -6.85526  -1.07967   2.35205
  H  -5.73126  -1.82077   3.60205
  H  -8.47826  -7.88877   3.84205
  H  -10.03626  -8.01347   4.53205
  H  -8.81226  -6.98647   5.34205
  N  -7.34226  -5.18937   1.52205
  N  -6.59426  -3.21167   2.12205
  C   5.62774   1.14313   6.55205
  C   6.49474  -0.82387   7.93205
  C   4.10274   1.33613   6.34205
  C   6.33074  -1.06587   5.76205
  C   7.06774  -2.08887   6.27205
  C   3.77174   2.57813   5.48205
  C   7.86174  -2.68087   8.63205
  C   2.37674   2.51013   4.79205
  H   6.37574  -0.42087   8.92205
  H   6.09574   1.51813   5.64205
  H   5.92774   1.62113   7.48205
  H   5.89074  -0.80587   4.81205
  H   7.45074  -2.99387   5.82205
  H   3.64974   0.53913   5.75205
  H   3.53474   1.28613   7.27205
  H   4.57674   2.85813   4.81205
  H   3.72074   3.41713   6.18205
  H   8.59274  -2.13087   9.22205
  H   8.14374  -3.67187   8.27205
  H   7.13474  -2.85787   9.42205
  H   2.18874   1.47813   4.50205
  H   2.29274   3.24513   3.99205
  H   1.64874   2.78813   5.56205
  N   6.09674  -0.26487   6.81205
  N   7.22774  -1.84687   7.62205
  C   1.25343  12.05563  -3.51795
  C  -0.42478  12.31343  -5.43795
  C   1.91625  10.87803  -4.21795
  C  -0.97539  13.55373  -3.79795
  C  -1.95581  13.66653  -4.70795
  C   1.21370   9.60793  -4.06795
  C  -2.17458  12.73313  -7.06795
  C   1.83410   8.50083  -4.92795
  H   0.15326  11.67093  -6.07795
  H   2.02288  12.82473  -3.44795
  H   0.89835  11.74393  -2.52795
  H  -0.82861  14.07613  -2.86795
  H  -2.88616  14.21223  -4.65795
  H   2.85985  10.74343  -3.68795
  H   2.17187  11.24323  -5.20795
  H   0.13628   9.67153  -4.21795
  H   1.31414   9.27133  -3.03795
  H  -2.43080  11.69453  -7.27795
  H  -1.50895  13.20033  -7.79795
  H  -3.20288  13.04773  -7.24795
  H   1.10835   7.69333  -5.01795
  H   1.96798   8.91913  -5.91795
  H   2.82185   8.24263  -4.53795
  N   0.04713  12.71943  -4.30795
  N  -1.57532  12.85793  -5.74795
  C   4.40202   5.30043  -6.10795
  C   5.75674   6.09083  -4.07795
  C   3.72461   6.32033  -6.94795
  C   3.64279   5.52633  -3.71795
  C   4.10076   5.97133  -2.57795
  C   4.68874   7.45393  -7.36795
  C   6.19984   7.07213  -1.82795
  C   5.93714   7.13383  -8.20795
  H   6.65284   6.45693  -4.55795
  H   5.30024   4.94743  -6.61795
  H   3.71850   4.45143  -6.11795
  H   2.64520   5.25343  -4.03795
  H   3.70270   5.91413  -1.57795
  H   3.37651   5.95143  -7.91795
  H   2.93402   6.81573  -6.38795
  H   4.90044   8.02793  -6.46795
  H   4.11290   8.22383  -7.88795
  H   7.24754   6.78733  -1.92795
  H   5.90314   6.85713  -0.79795
  H   6.11574   8.15043  -1.96795
  H   5.54354   6.63283  -9.09795
  H   6.75434   6.56443  -7.76795
  H   6.40004   8.02223  -8.63795
  N   4.63244   5.58843  -4.67795
  N   5.40564   6.36823  -2.81795
  C  -6.32939   3.53663   1.55205
  C  -5.79303   4.14373   3.98205
  C  -6.49153   2.24713   0.61205
  C  -6.74180   2.25583   3.69205
  C  -6.41769   2.30073   5.01205
  C  -7.18349   2.70253  -0.61795
  C  -5.27256   4.09903   6.51205
  C  -7.09447   1.51853  -1.58795
  H  -5.40611   5.14623   3.88205
  H  -7.27482   4.07703   1.50205
  H  -5.52966   4.11363   1.09205
  H  -7.24868   1.46033   3.17205
  H  -6.66932   1.66973   5.85205
  H  -5.45921   1.92023   0.48205
  H  -7.05052   1.46153   1.12205
  H  -6.69131   3.57443  -1.04795
  H  -8.21131   2.91183  -0.31795
  H  -5.60129   5.08473   6.84205
  H  -5.45985   3.45263   7.37205
  H  -4.20315   4.14383   6.30205
  H  -7.66414   0.71153  -1.12795
  H  -7.51775   1.88393  -2.52795
  H  -6.07132   1.21303  -1.80795
  N  -6.28944   3.34643   3.04205
  N  -5.78895   3.51263   5.17205
  C  -5.55526  -5.05287   5.49205
  C  -5.68666  -4.53687   7.95205
  C  -4.44276  -6.10587   5.79205
  C  -7.51076  -3.99687   6.79205
  C  -7.63216  -3.63587   8.08205
  C  -4.24606  -7.11587   4.70205
  C  -6.50926  -4.28487  10.22205
  C  -5.50876  -7.77487   4.23205
  H  -4.73556  -4.95087   8.25205
  H  -5.10766  -4.30987   4.83205
  H  -6.35256  -5.62787   5.01205
  H  -8.05146  -3.85787   5.86205
  H  -8.48976  -3.18187   8.56205
  H  -4.77646  -6.68987   6.65205
  H  -3.55076  -5.59887   6.16205
  H  -3.71426  -6.74887   3.82205
  H  -3.41246  -7.75187   5.00205
  H  -6.87446  -3.37687  10.70205
  H  -6.95456  -5.16087  10.69205
  H  -5.48036  -4.43187  10.55205
  H  -5.83856  -7.27487   3.32205
  H  -5.22516  -8.77087   3.89205
  H  -6.29826  -7.80287   4.98205
  N  -6.19106  -4.52987   6.75205
  N  -6.58086  -4.20387   8.81205
  C  11.87184  -5.64007   0.68205
  C  10.61764  -5.47397   2.83205
  C  11.46354  -4.69977  -0.43795
  C  12.14054  -3.98457   2.49205
  C  11.72164  -3.78377   3.75205
  C  11.42084  -5.45927  -1.86795
  C  10.08754  -4.71227   5.32205
  C  11.05314  -4.62297  -3.13795
  H   9.96294  -6.32727   2.73205
  H  11.52394  -6.66537   0.55205
  H  12.94194  -5.75727   0.51205
  H  12.85944  -3.48677   1.86205
  H  11.90744  -2.96467   4.43205
  H  12.19974  -3.89617  -0.41795
  H  10.46854  -4.27977  -0.28795
  H  10.63594  -6.17437  -1.62795
  H  12.34934  -6.02797  -1.91795
  H  10.28784  -5.68637   5.77205
  H  10.52224  -3.93597   5.95205
  H   9.01594  -4.64137   5.14205
  H  11.89304  -4.14117  -3.63795
  H  10.45544  -5.16897  -3.86795
  H  10.53684  -3.70377  -2.85795
  N  11.57634  -5.14807   2.00205
  N  10.71664  -4.67527   3.97205
  C  -7.00616  -9.59767  -4.56795
  C  -7.99896  -7.48437  -3.65795
  C  -6.89366  -10.23687  -5.82795
  C  -7.69716  -7.55867  -5.73795
  C  -8.02456  -6.34677  -5.41795
  C  -5.49366  -9.88767  -6.45795
  C  -8.82966  -5.18677  -3.27795
  C  -5.02546  -10.63577  -7.71795
  H  -8.10786  -7.69707  -2.60795
  H  -7.73046  -10.11837  -3.93795
  H  -6.09666  -9.68907  -3.96795
  H  -7.72736  -7.99217  -6.72795
  H  -8.36856  -5.53317  -6.03795
  H  -7.01296  -11.32027  -5.80795
  H  -7.68806  -9.95377  -6.51795
  H  -5.50406  -8.82237  -6.68795
  H  -4.73146  -10.34047  -5.81795
  H  -8.08246  -4.93717  -2.52795
  H  -9.06496  -4.36997  -3.96795
  H  -9.77806  -5.56117  -2.89795
  H  -5.79236  -10.38307  -8.44795
  H  -5.08686  -11.71787  -7.59795
  H  -4.08586  -10.33157  -8.17795
  N  -7.56896  -8.29287  -4.62795
  N  -8.20306  -6.28147  -4.06795
  C  -1.97961  -7.26869  10.67205
  C   0.36516  -7.61888   9.81205
  C  -2.93150  -6.37326   9.85205
  C  -1.15522  -8.14221   8.43205
  C  -0.13258  -7.75225   7.72205
  C  -2.31106  -5.05994   9.36205
  C   2.34811  -7.33656   8.19205
  C  -2.75575  -3.91947  10.30205
  H   0.86964  -7.32886  10.72205
  H  -2.41369  -8.16250  11.12205
  H  -1.54056  -6.70847  11.50205
  H  -2.08131  -8.56960   8.08205
  H   0.18780  -7.69744   6.69205
  H  -3.84385  -6.23781  10.43205
  H  -3.23823  -7.00007   9.01205
  H  -2.52521  -4.84609   8.31205
  H  -1.22726  -5.08447   9.47205
  H   2.45505  -6.28263   7.93205
  H   2.77023  -7.85991   7.33205
  H   3.00074  -7.47193   9.05205
  H  -2.16067  -3.04697  10.03205
  H  -2.61168  -4.13264  11.36205
  H  -3.69747  -3.42520  10.06205
  N  -0.95195  -7.70943   9.73205
  N   0.91225  -7.62403   8.59205
  C   9.48374   0.16263   4.67205
  C  11.07574  -0.47247   6.56205
  C   9.72214  -1.13977   3.95205
  C  10.32934   1.59883   6.62205
  C  11.15054   1.38253   7.62205
  C   8.60774  -1.50407   2.95205
  C  12.57054  -0.44807   8.58205
  C   8.91744  -0.80747   1.58205
  H  11.08564  -1.54207   6.41205
  H   8.44674   0.25153   4.99205
  H   9.51164   0.96793   3.94205
  H   9.77864   2.45003   6.25205
  H  11.44284   1.94123   8.50205
  H  10.77044  -1.14957   3.65205
  H   9.71514  -1.88437   4.75205
  H   7.61914  -1.23767   3.32205
  H   8.77154  -2.58107   2.91205
  H  12.47124  -1.52897   8.68205
  H  13.58134  -0.38827   8.17205
  H  12.60234   0.04823   9.55205
  H   9.14804   0.25203   1.69205
  H   9.66044  -1.40967   1.06205
  H   8.03544  -0.94227   0.95205
  N  10.31234   0.40173   5.90205
  N  11.54874   0.09223   7.64205
  C  -4.71726  -5.77946  -9.65795
  C  -3.44426  -7.91611  -9.85795
  C  -4.70826  -4.68207  -10.74795
  C  -5.02726  -7.71905  -11.38795
  C  -4.21026  -8.71323  -11.76795
  C  -4.20726  -3.39127  -10.20795
  C  -2.16026  -10.02251  -10.74795
  C  -4.26226  -2.27287  -11.14795
  H  -2.99126  -7.89641  -8.87795
  H  -3.96026  -5.49790  -8.92795
  H  -5.67826  -5.88281  -9.15795
  H  -6.01326  -7.53965  -11.78795
  H  -4.32726  -9.35847  -12.62795
  H  -5.70026  -4.64530  -11.19795
  H  -4.27126  -5.06080  -11.67795
  H  -4.78526  -3.24297  -9.29795
  H  -3.13926  -3.50234  -10.01795
  H  -1.27526  -9.60183  -10.27795
  H  -2.53826  -10.89555  -10.21795
  H  -1.90826  -10.51139  -11.68795
  H  -3.41426  -1.59047  -11.08795
  H  -5.09826  -1.60107  -10.95795
  H  -4.25026  -2.56107  -12.19795
  N  -4.48526  -7.13496  -10.25795
  N  -3.20726  -8.87196  -10.81795
  C   7.47384  -11.49657   6.64205
  C   5.22804  -12.11437   5.53205
  C   8.39434  -10.33997   6.14205
  C   5.06244  -10.72187   7.15205
  C   3.80380  -11.10267   6.79205
  C   9.21484  -10.85877   4.90205
  C   2.76269  -12.54127   4.99205
  C  10.03334  -9.78917   4.31205
  H   5.48074  -12.77047   4.71205
  H   7.56354  -11.57537   7.72205
  H   7.87864  -12.37987   6.14205
  H   5.34844  -9.93567   7.83205
  H   2.80206  -11.01467   7.19205
  H   7.80314  -9.45017   5.92205
  H   9.06734  -10.07937   6.95205
  H   9.92974  -11.59547   5.27205
  H   8.56724  -11.36047   4.18205
  H   2.11076  -12.95537   5.76205
  H   2.06327  -11.85137   4.52205
  H   3.17362  -13.33467   4.37205
  H  10.73154  -9.37897   5.04205
  H   9.48794  -8.97547   3.83205
  H  10.65744  -10.31847   3.59205
  N   5.97794  -11.42887   6.37205
  N   3.88688  -11.91837   5.74205
  C  10.50864  -11.75317  -2.68795
  C   8.09114  -12.68467  -2.43795
  C  11.11714  -12.38877  -1.42795
  C   8.31234  -11.00037  -3.79795
  C   6.99034  -11.33277  -3.64795
  C  10.50204  -11.70927  -0.18795
  C   5.66644  -13.26557  -2.79795
  C  11.21194  -11.80557   1.12205
  H   8.35504  -13.59537  -1.91795
  H  10.68844  -10.67807  -2.68795
  H  11.01354  -12.06787  -3.60795
  H   8.80164  -10.24177  -4.38795
  H   6.10844  -10.98687  -4.16795
  H  11.03104  -13.47477  -1.46795
  H  12.18624  -12.20017  -1.33795
  H   9.46994  -12.01757  -0.01795
  H  10.31624  -10.65707  -0.39795
  H   4.87934  -12.77107  -2.22795
  H   5.27904  -13.33947  -3.80795
  H   5.80164  -14.26917  -2.38795
  H  11.69604  -12.77937   1.04205
  H  11.85474  -10.95557   1.35205
  H  10.52644  -11.89997   1.96205
  N   9.01674  -11.85437  -3.01795
  N   6.89564  -12.45317  -2.87795
  C  -2.87976   2.62213  -11.42795
  C  -4.40846   2.58713  -9.48795
  C  -3.98246   2.66013  -12.51795
  C  -2.38506   3.34713  -9.02795
  C  -3.04026   3.39513  -7.87795
  C  -3.69346   1.78413  -13.78795
  C  -5.46866   3.09913  -7.27795
  C  -2.44026   2.27413  -14.52795
  H  -5.29736   2.23813  -9.98795
  H  -2.59616   1.57213  -11.48795
  H  -2.02226   3.26913  -11.60795
  H  -1.44606   3.77213  -9.34795
  H  -2.84756   3.78013  -6.88795
  H  -4.91506   2.25813  -12.12795
  H  -4.17686   3.72013  -12.67795
  H  -4.55866   1.94313  -14.42795
  H  -3.67816   0.73013  -13.50795
  H  -6.44246   2.78913  -7.64795
  H  -5.31676   2.71713  -6.26795
  H  -5.42306   4.16413  -7.04795
  H  -1.57506   1.69913  -14.19795
  H  -2.22296   3.32313  -14.31795
  H  -2.63166   1.88313  -15.51795
  N  -3.22956   2.91513  -10.03795
  N  -4.30266   2.88813  -8.18795
  C   3.64174  -2.24587  11.65205
  C   1.75274  -1.13787  12.92205
  C   4.56574  -1.07087  11.22205
  C   1.19574  -2.25387  11.19205
  C   0.13474  -1.58887  11.67205
  C   4.19274   0.35113  11.62205
  C  -0.47126  -0.27887  13.71205
  C   3.14274   1.06913  10.62205
  H   2.41174  -0.72087  13.66205
  H   3.74974  -2.95187  10.83205
  H   4.05474  -2.79487  12.50205
  H   1.18574  -2.85587  10.29205
  H  -0.86626  -1.49887  11.27205
  H   4.67674  -0.95587  10.14205
  H   5.52074  -1.45287  11.58205
  H   3.87474   0.46913  12.65205
  H   5.12374   0.91113  11.53205
  H  -1.33626  -0.85787  14.03205
  H  -0.05826   0.24413  14.57205
  H  -0.95026   0.54813  13.18205
  H   3.00874   2.11313  10.90205
  H   3.67974   1.14113   9.68205
  H   2.20474   0.54213  10.45205
  N   2.20274  -2.07987  12.08205
  N   0.48274  -0.99087  12.83205
  C  -2.12076   7.68843  -6.92795
  C  -3.34166   6.90373  -4.97795
  C  -1.18866   6.56533  -7.24795
  C  -4.62886   7.05633  -6.78795
  C  -5.35346   6.69243  -5.67795
  C  -0.78786   5.55563  -6.08795
  C  -5.03886   6.69893  -3.21795
  C   0.36184   4.59913  -6.48795
  H  -2.51046   6.90693  -4.28795
  H  -2.50636   8.17553  -7.81795
  H  -1.79106   8.53763  -6.32795
  H  -4.85606   7.21023  -7.82795
  H  -6.41566   6.49813  -5.66795
  H  -1.63856   5.94443  -8.02795
  H  -0.27176   7.07253  -7.54795
  H  -0.46526   6.31943  -5.37795
  H  -1.61116   5.03353  -5.59795
  H  -6.09016   6.48453  -3.01795
  H  -5.07526   7.76303  -2.97795
  H  -4.38166   6.16433  -2.52795
  H   1.18664   5.27273  -6.71795
  H   0.18424   4.09633  -7.43795
  H   0.56884   3.97583  -5.61795
  N  -3.30376   7.17063  -6.25795
  N  -4.56636   6.64823  -4.60795
  C   7.31624  -11.31547  -7.13795
  C   6.06604  -13.03937  -8.62795
  C   8.88124  -11.18417  -7.33795
  C   6.02724  -10.92147  -9.10795
  C   5.26494  -11.56137  -9.97795
  C   9.27794  -11.42397  -8.85795
  C   4.49694  -13.98617  -10.28795
  C  10.54874  -10.82627  -9.36795
  H   5.99754  -13.91317  -7.99795
  H   7.29324  -12.11927  -6.40795
  H   6.78404  -10.47187  -6.69795
  H   6.05714  -9.88137  -8.81795
  H   4.63634  -11.16927  -10.76795
  H   9.54324  -11.84107  -6.76795
  H   9.13974  -10.18877  -6.97795
  H   8.63554  -10.90207  -9.56795
  H   9.06444  -12.46897  -9.08795
  H   4.63974  -14.96447  -9.82795
  H   4.70944  -13.87497  -11.34795
  H   3.49374  -13.69167  -9.97795
  H  10.32194  -9.81667  -9.70795
  H  11.31264  -10.66967  -8.60795
  H  11.06374  -11.51117  -10.03795
  N   6.60804  -11.86617  -8.28795
  N   5.34984  -12.92187  -9.70795
  C  11.93174   1.68523  -0.05795
  C  12.77614   2.69183   2.11205
  C  10.62014   2.53483   0.00205
  C  14.16124   1.48513   1.01205
  C  14.83754   1.99123   2.06205
  C   9.38414   1.93923  -0.63795
  C  14.10754   3.34483   4.12205
  C   8.30754   2.96253  -0.77795
  H  11.84224   3.12263   2.44205
  H  12.39914   1.89393  -1.01795
  H  11.63894   0.63773   0.02205
  H  14.59664   0.90323   0.21205
  H  15.83214   1.80703   2.44205
  H  10.90824   3.53463  -0.32795
  H  10.40864   2.74003   1.05205
  H   9.03734   1.04913  -0.10795
  H   9.59294   1.69623  -1.67795
  H  14.91684   2.89563   4.69205
  H  14.28064   4.42103   4.12205
  H  13.21864   3.06803   4.68205
  H   7.53044   2.70193  -0.05795
  H   8.60464   3.97553  -0.50795
  H   7.81954   2.87893  -1.74795
  N  12.91754   2.07943   0.99205
  N  13.89484   2.81183   2.75205
  C  -2.46736  10.63602   2.87205
  C  -1.33686   9.89832   4.94205
  C  -3.72146   9.70402   3.00205
  C  -0.19716   9.59575   3.14205
  C   0.57334   9.31232   4.20205
  C  -4.62396   9.51846   1.81205
  C   0.21214   9.13478   6.73205
  C  -4.47676   8.09145   1.19205
  H  -2.19276  10.07807   5.58205
  H  -2.10606  10.52436   1.84205
  H  -2.62426  11.67354   3.16205
  H   0.09744   9.51611   2.11205
  H   1.55384   8.85980   4.22205
  H  -4.31256  10.28749   3.70205
  H  -3.45746   8.71922   3.38205
  H  -5.63026   9.65645   2.20205
  H  -4.33936  10.21194   1.01205
  H  -0.52956   9.58376   7.40205
  H   0.99634   9.63554   7.30205
  H   0.08204   8.07519   6.95205
  H  -3.47856   7.65368   1.18205
  H  -5.14226   7.38941   1.69205
  H  -4.84256   8.09298   0.16205
  N  -1.33756  10.10913   3.66205
  N  -0.21926   9.47105   5.32205
  C  12.58854  -3.72387  -7.54795
  C  13.14374  -6.11187  -7.91795
  C  12.06934  -3.53987  -8.98795
  C  11.59424  -5.78287  -6.48795
  C  11.51844  -7.04987  -6.92795
  C  10.79524  -4.41387  -9.35795
  C  13.02814  -8.51887  -8.34795
  C  10.06524  -3.93287  -10.66795
  H  13.95454  -5.88487  -8.59795
  H  13.55844  -3.27987  -7.32795
  H  11.99554  -3.17887  -6.81795
  H  10.89754  -5.22787  -5.86795
  H  10.68504  -7.71487  -6.75795
  H  12.90124  -3.75087  -9.65795
  H  11.62164  -2.56487  -9.17795
  H  10.04764  -4.43787  -8.56795
  H  11.12604  -5.43687  -9.53795
  H  14.10034  -8.48587  -8.53795
  H  13.07754  -9.39587  -7.69795
  H  12.72954  -8.63087  -9.38795
  H   9.88964  -2.86187  -10.75795
  H  10.53074  -4.29887  -11.57795
  H   9.08434  -4.40787  -10.63795
  N  12.65244  -5.18387  -7.15795
  N  12.62784  -7.28987  -7.64795
  C   7.05554   5.15363  -11.68795
  C   7.55594   4.17173  -9.41795
  C   6.46604   4.36083  -12.89795
  C   5.44044   4.21613  -9.99795
  C   5.58414   3.53733  -8.90795
  C   7.19444   4.61673  -14.20795
  C   7.46414   3.06613  -7.23795
  C   6.45874   4.07103  -15.43795
  H   8.60894   4.40243  -9.48795
  H   6.60564   6.13793  -11.81795
  H   8.13064   5.15433  -11.86795
  H   4.62274   4.54883  -10.61795
  H   4.86874   3.02013  -8.27795
  H   5.39064   4.53813  -12.88795
  H   6.44814   3.27963  -12.75795
  H   8.23434   4.29593  -14.26795
  H   7.25774   5.69453  -14.35795
  H   7.38214   1.98413  -7.12795
  H   8.50994   3.28313  -7.01795
  H   6.91704   3.42483  -6.35795
  H   7.06584   3.39153  -16.03795
  H   5.45094   3.72673  -15.20795
  H   6.18534   4.94173  -16.03795
  N   6.72004   4.56163  -10.34795
  N   6.91184   3.47413  -8.55795
  C  -11.36666   2.09581  -3.96795
  C  -11.80836   4.54235  -3.99795
  C  -10.59006   2.16886  -5.27795
  C  -13.62916   3.31685  -3.67795
  C  -13.98066   4.62686  -3.74795
  C  -9.41716   1.17693  -5.33795
  C  -12.75736   6.76241  -3.97795
  C  -8.31436   1.57683  -6.25795
  H  -10.78536   4.76545  -4.26795
  H  -10.64066   2.03415  -3.15795
  H  -11.83526   1.11713  -3.86795
  H  -14.11596   2.36117  -3.54795
  H  -14.91126   5.12998  -3.52795
  H  -10.14536   3.16263  -5.33795
  H  -11.38476   1.90627  -5.97795
  H  -9.91076   0.21973  -5.50795
  H  -8.98986   0.96423  -4.35795
  H  -13.05076   7.34617  -3.10795
  H  -11.70576   7.04900  -3.96795
  H  -13.27026   7.12784  -4.86795
  H  -8.78416   2.00372  -7.13795
  H  -7.69026   0.72993  -6.53795
  H  -7.61826   2.22680  -5.72795
  N  -12.23546   3.31774  -3.76795
  N  -12.82686   5.37795  -3.83795
  C  -5.09166  12.78725   8.05205
  C  -7.26096  11.50722   7.60205
  C  -4.28486  13.82250   7.15205
  C  -5.63016  11.00502   6.33205
  C  -6.69506  10.29624   5.97205
  C  -5.05426  14.66867   6.14205
  C  -8.99136   9.76600   7.01205
  C  -5.38826  13.77914   4.90205
  H  -7.81786  11.95663   8.41205
  H  -5.49126  13.13564   9.00205
  H  -4.27426  12.12848   8.34205
  H  -4.58326  10.99457   6.07205
  H  -6.78966   9.40632   5.37205
  H  -3.78926  14.46284   7.88205
  H  -3.46866  13.40348   6.57205
  H  -5.92756  15.23195   6.47205
  H  -4.32846  15.43824   5.88205
  H  -9.52386  10.08274   7.91205
  H  -9.70506   9.82783   6.19205
  H  -8.53436   8.78999   7.17205
  H  -4.57316  13.06698   4.77205
  H  -5.51516  14.37967   4.00205
  H  -6.22376  13.10384   5.08205
  N  -5.98736  11.79894   7.36205
  N  -7.75466  10.56023   6.85205
  C  -8.15046  11.02513  -2.02795
  C  -7.59176   8.68613  -1.58795
  C  -9.66166  11.43513  -1.80795
  C  -7.69046   9.86113   0.22205
  C  -7.64766   8.62913   0.60205
  C  -10.65416  10.37813  -1.40795
  C  -7.26586   6.44213  -0.64795
  C  -10.95616   9.49013  -2.61795
  H  -7.65356   8.45113  -2.63795
  H  -7.61446  11.94913  -1.80795
  H  -8.13096  10.69113  -3.05795
  H  -8.04826  10.71413   0.78205
  H  -7.77676   8.22013   1.59205
  H  -10.11876  12.06413  -2.56795
  H  -9.67336  12.10313  -0.94795
  H  -11.58786  10.84913  -1.09795
  H  -10.36056   9.76813  -0.54795
  H  -7.53756   6.08913   0.35205
  H  -6.19016   6.28213  -0.71795
  H  -7.72876   5.89213  -1.46795
  H  -11.75726   8.76413  -2.47795
  H  -10.04556   8.93013  -2.83795
  H  -11.18526  10.10013  -3.49795
  N  -7.67266   9.90413  -1.16795
  N  -7.39706   7.89313  -0.55795
  C  10.90674   8.42743   1.24205
  C  11.45074   6.98043   3.31205
  C   9.65574   8.03473   0.43205
  C   9.98574   8.57673   3.57205
  C   9.87474   7.86603   4.64205